
    -----------------------------------------------------------------------
          Psi4: An Open-Source Ab Initio Electronic Structure Package
                               Psi4 1.3.2 release

                         Git: Rev {HEAD} ecbda83 


    R. M. Parrish, L. A. Burns, D. G. A. Smith, A. C. Simmonett,
    A. E. DePrince III, E. G. Hohenstein, U. Bozkaya, A. Yu. Sokolov,
    R. Di Remigio, R. M. Richard, J. F. Gonthier, A. M. James,
    H. R. McAlexander, A. Kumar, M. Saitow, X. Wang, B. P. Pritchard,
    P. Verma, H. F. Schaefer III, K. Patkowski, R. A. King, E. F. Valeev,
    F. A. Evangelista, J. M. Turney, T. D. Crawford, and C. D. Sherrill,
    J. Chem. Theory Comput. 13(7) pp 3185--3197 (2017).
    (doi: 10.1021/acs.jctc.7b00174)


                         Additional Contributions by
    P. Kraus, H. Kruse, M. H. Lechner, M. C. Schieber, R. A. Shaw,
    A. Alenaizan, R. Galvelis, Z. L. Glick, S. Lehtola, and J. P. Misiewicz

    -----------------------------------------------------------------------


    Psi4 started on: Monday, 03 May 2021 02:59PM

    Process ID: 50255
    Host:       Hunters-MacBook-Pro-2.local
    PSIDATADIR: /opt/anaconda3/share/psi4
    Memory:     500.0 MiB
    Threads:    1
    
  ==> Input File <==

--------------------------------------------------------------------------
molecule {
N	0.666	9.647	-8.772	
C	1.505	10.498	-7.937	
C	1.868	9.672	-6.722	
O	1.118	9.604	-5.739	
C	0.777	11.755	-7.551	
H	0.557	10.027	-9.569	
H	1.055	8.853	-8.873	
H	-0.128	9.54	-8.384	
H	2.302	10.783	-8.41	
H	1.352	12.305	-6.997	
H	0.533	12.246	-8.351	
H	-0.025	11.526	-7.056	
N	3.118	9.189	-6.755	
C	3.873	8.795	-5.565	
C	4.127	10.049	-4.742	
O	4.41	11.109	-5.302	
C	5.215	8.176	-5.974	
C	6.138	9.172	-6.66	
O	5.654	9.968	-7.498	
O	7.352	9.16	-6.359	
H	3.556	9.081	-7.487	
H	3.373	8.14	-5.053	
H	5.656	7.821	-5.186	
H	5.053	7.428	-6.57	
N	4.018	9.944	-3.424	
C	4.221	11.092	-2.584	
C	5.132	10.771	-1.453	
O	5.028	11.401	-0.414	
C	2.897	11.626	-2.036	
C	2.084	12.322	-3.093	
O	2.541	13.284	-3.713	
N	0.88	11.83	-3.325	
H	3.828	9.217	-3.006	
H	4.628	11.779	-3.135	
H	2.382	10.892	-1.666	
H	3.075	12.243	-1.309	
H	0.381	12.183	-3.93	
H	0.596	11.157	-2.871	
N	6.054	9.832	-1.65	
C	7.1	9.691	-0.647	
C	7.949	10.992	-0.651	
O	8.236	11.572	-1.698	
C	7.851	8.348	-0.811	
C	6.98	7.121	-0.304	
C	7.449	5.738	-0.782	
C	6.563	4.621	-0.226	
N	6.961	3.3	-0.77	
H	6.093	9.294	-2.32	
H	6.746	9.616	0.253	
H	8.081	8.218	-1.744	
H	8.684	8.38	-0.315	
H	6.975	7.127	0.666	
H	6.064	7.253	-0.593	
H	7.438	5.709	-1.751	
H	8.367	5.593	-0.504	
H	6.625	4.607	0.742	
H	5.636	4.799	-0.448	
H	6.432	2.668	-0.433	
H	6.884	3.308	-1.657	
H	7.806	3.129	-0.548	
N	8.256	11.503	0.535	
C	9.022	12.738	0.679	
C	10.411	12.601	0.061	
O	11.037	11.538	0.118	
C	9.21	13.102	2.159	
C	7.973	13.604	2.852	
C	6.801	13.894	2.165	
C	7.993	13.769	4.206	
C	5.699	14.368	2.828	
C	6.903	14.23	4.863	
C	5.761	14.562	4.18	
H	8.026	11.144	1.282	
H	8.519	13.43	0.223	
H	9.534	12.32	2.632	
H	9.9	13.78	2.226	
H	6.764	13.765	1.245	
H	8.764	13.562	4.683	
H	4.916	14.556	2.362	
H	6.929	14.323	5.788	
H	5.032	14.918	4.635	
N	10.914	13.682	-0.514	
C	12.331	13.719	-0.878	
C	13.193	14.013	0.355	
O	12.666	14.146	1.461	
C	12.593	14.71	-2.003	
C	12.282	16.153	-1.625	
O	12.396	16.571	-0.488	
N	11.932	16.93	-2.613	
H	10.468	14.393	-0.701	
H	12.581	12.844	-1.214	
H	13.523	14.646	-2.271	
H	12.059	14.462	-2.774	
H	11.775	17.763	-2.47	
H	11.859	16.609	-3.407	
N	14.517	14.085	0.195	
C	15.37	14.165	1.381	
C	15.142	15.479	2.143	
O	15.073	15.473	3.369	
C	16.865	13.936	1.085	
C	17.267	12.456	0.903	
C	18.758	12.208	1.186	
C	19.034	11.823	2.625	
N	19.198	10.344	2.781	
H	14.927	14.089	-0.561	
H	15.101	13.429	1.953	
H	17.101	14.424	0.281	
H	17.387	14.314	1.81	
H	16.733	11.904	1.496	
H	17.063	12.178	-0.004	
H	19.08	11.504	0.601	
H	19.26	13.009	0.969	
H	19.837	12.272	2.932	
H	18.305	12.129	3.187	
H	19.358	10.151	3.635	
H	18.453	9.933	2.519	
H	19.88	10.066	2.281	
N	15.011	16.617	1.467	
C	14.834	17.879	2.21	
C	13.493	17.887	2.949	
O	13.379	18.446	4.037	
C	14.995	19.132	1.329	
C	13.888	19.405	0.321	
C	14.151	20.644	-0.534	
O	15.336	20.9	-0.902	
O	13.173	21.36	-0.845	
H	15.02	16.689	0.61	
H	15.551	17.919	2.863	
H	15.071	19.904	1.911	
H	15.833	19.057	0.846	
H	13.788	18.634	-0.259	
H	13.048	19.516	0.793	
N	12.488	17.278	2.346	
C	11.182	17.227	2.979	
C	11.199	16.272	4.188	
O	10.63	16.591	5.229	
C	10.144	16.797	1.967	
C	9.927	17.842	0.909	
C	9.255	17.31	-0.297	
O	8.993	16.11	-0.423	
N	9.002	18.205	-1.221	
H	12.538	16.892	1.579	
H	10.954	18.112	3.305	
H	10.424	15.968	1.549	
H	9.306	16.617	2.42	
H	9.395	18.564	1.278	
H	10.783	18.222	0.656	
H	9.203	19.03	-1.087	
H	8.635	17.967	-1.961	
N	11.827	15.104	4.031	
C	11.973	14.186	5.163	
C	12.754	14.848	6.3	
O	12.386	14.729	7.461	
C	12.669	12.896	4.733	
C	12.832	11.916	5.905	
C	13.417	10.612	5.438	
O	12.771	9.842	4.723	
N	14.664	10.366	5.804	
H	12.17	14.828	3.292	
H	11.084	13.965	5.482	
H	12.157	12.473	4.026	
H	13.541	13.107	4.364	
H	13.406	12.308	6.582	
H	11.97	11.757	6.321	
H	15.084	10.926	6.304	
H	15.055	9.646	5.542	
N	13.844	15.539	5.961	
C	14.654	16.205	6.979	
C	13.806	17.233	7.729	
O	13.82	17.283	8.972	
C	15.853	16.926	6.334	
C	16.942	15.971	5.822	
O	16.998	14.807	6.193	
N	17.812	16.487	4.971	
H	14.128	15.633	5.155	
H	14.98	15.53	7.595	
H	15.535	17.468	5.595	
H	16.244	17.532	6.983	
H	18.447	16.0	4.657	
H	17.743	17.31	4.731	
N	13.083	18.074	6.988	
C	12.243	19.109	7.6	
C	11.305	18.419	8.559	
O	11.134	18.826	9.696	
C	11.438	19.88	6.548	
H	13.064	18.063	6.128	
H	12.804	19.754	8.057	
H	10.895	20.554	6.986	
H	12.046	20.309	5.925	
H	10.863	19.265	6.066	
N	10.707	17.346	8.07	
C	9.597	16.721	8.766	
C	10.015	16.184	10.113	
O	9.35	16.428	11.126	
C	9.047	15.573	7.926	
C	7.761	14.992	8.452	
C	7.751	13.982	9.375	
C	6.547	15.478	7.949	
C	6.544	13.468	9.8	
C	5.338	14.968	8.337	
C	5.324	13.992	9.265	
H	10.93	16.962	7.333	
H	8.917	17.398	8.904	
H	8.902	15.888	7.02	
H	9.714	14.87	7.879	
H	8.55	13.646	9.712	
H	6.563	16.172	7.33	
H	6.523	12.785	10.431	
H	4.546	15.287	7.969	
H	4.51	13.654	9.562	
N	11.103	15.419	10.1	
C	11.627	14.855	11.31	
C	12.094	15.955	12.243	
O	11.883	15.878	13.447	
C	12.757	13.879	10.979	
C	12.258	12.477	10.678	
C	11.664	12.173	9.476	
C	12.414	11.468	11.6	
C	11.173	10.898	9.213	
C	11.945	10.181	11.352	
C	11.337	9.887	10.147	
O	10.888	8.622	9.834	
H	11.546	15.221	9.39	
H	10.928	14.362	11.766	
H	13.252	14.212	10.214	
H	13.376	13.844	11.725	
H	11.589	12.833	8.825	
H	12.842	11.649	12.406	
H	10.735	10.724	8.411	
H	12.041	9.519	11.998	
H	11.044	8.102	10.475	
N	12.735	16.976	11.694	
C	13.212	18.051	12.539	
C	12.024	18.669	13.291	
O	12.103	18.875	14.508	
C	14.033	19.116	11.774	
C	14.653	20.121	12.775	
C	15.777	21.012	12.284	
O	16.189	20.919	11.12	
O	16.276	21.814	13.13	
H	12.9	17.063	10.855	
H	13.835	17.672	13.179	
H	14.734	18.687	11.258	
H	13.463	19.584	11.144	
H	13.941	20.693	13.101	
H	14.983	19.618	13.536	
N	10.924	18.933	12.59	
C	9.775	19.534	13.223	
C	9.091	18.603	14.224	
O	8.659	19.053	15.289	
C	8.8	20.02	12.162	
C	9.463	21.156	11.378	
C	7.466	20.431	12.788	
C	8.717	21.53	10.143	
H	10.831	18.77	11.751	
H	10.089	20.292	13.74	
H	8.59	19.302	11.544	
H	9.54	21.935	11.951	
H	10.365	20.892	11.137	
H	6.863	20.737	12.093	
H	7.074	19.67	13.244	
H	7.614	21.148	13.425	
H	9.182	22.251	9.69	
H	8.66	20.762	9.554	
H	7.823	21.821	10.381	
N	8.997	17.314	13.91	
C	8.475	16.363	14.878	
C	9.208	16.446	16.202	
O	8.61	16.207	17.248	
C	8.596	14.922	14.381	
C	7.576	14.523	13.306	
C	7.853	13.088	12.939	
C	6.136	14.728	13.765	
H	9.227	16.976	13.153	
H	7.542	16.599	14.997	
H	9.489	14.79	14.026	
H	8.5	14.323	15.138	
H	7.674	15.095	12.529	
H	7.224	12.801	12.259	
H	8.757	13.01	12.597	
H	7.756	12.528	13.725	
H	5.529	14.464	13.056	
H	5.967	14.188	14.553	
H	5.994	15.663	13.979	
N	10.497	16.749	16.144	
C	11.371	16.61	17.285	
C	11.823	17.916	17.954	
O	12.476	17.859	18.98	
C	12.561	15.728	16.894	
C	12.143	14.34	16.513	
N	12.783	13.611	15.548	
C	11.124	13.564	16.947	
C	12.18	12.448	15.411	
N	11.163	12.385	16.246	
H	10.887	17.042	15.436	
H	10.841	16.188	17.979	
H	13.033	16.136	16.151	
H	13.185	15.683	17.636	
H	10.506	13.79	17.604	
H	12.432	11.777	14.818	
H	10.621	11.724	16.336	
N	11.489	19.079	17.398	
C	11.906	20.347	18.004	
C	11.429	20.379	19.446	
O	10.233	20.283	19.698	
C	11.357	21.544	17.226	
C	12.05	21.864	15.906	
C	11.188	22.816	15.083	
C	13.401	22.484	16.118	
H	11.026	19.158	16.677	
H	12.874	20.409	17.977	
H	10.417	21.386	17.046	
H	11.409	22.328	17.795	
H	12.171	21.026	15.433	
H	11.635	23.015	14.245	
H	10.33	22.401	14.901	
H	11.05	23.638	15.579	
H	13.809	22.673	15.259	
H	13.303	23.31	16.617	
H	13.964	21.871	16.615	
N	12.357	20.543	20.408	
C	11.955	20.236	21.794	
C	11.078	21.281	22.45	
O	10.424	20.944	23.458	
C	13.299	20.142	22.538	
C	14.254	20.933	21.718	
C	13.822	20.691	20.286	
H	11.412	19.433	21.816	
H	13.228	20.5	23.437	
H	13.589	19.22	22.622	
H	14.216	21.876	21.943	
H	15.168	20.643	21.864	
H	14.062	21.431	19.707	
H	14.235	19.895	19.915	
N	11.073	22.509	21.951	
C	10.44	23.591	22.686	
C	9.112	24.052	22.091	
O	8.444	24.904	22.666	
C	11.433	24.728	22.862	
C	12.737	24.23	23.427	
O	12.747	23.429	24.357	
N	13.844	24.641	22.843	
H	11.425	22.734	21.2	
H	10.195	23.249	23.56	
H	11.591	25.158	22.007	
H	11.058	25.4	23.452	
H	14.606	24.347	23.111	
H	13.804	25.203	22.193	
N	8.697	23.455	20.979	
C	7.358	23.71	20.474	
C	6.287	23.12	21.375	
O	6.464	22.04	21.958	
C	7.179	23.122	19.075	
C	8.131	23.664	18.012	
C	7.759	23.04	16.668	
C	8.097	25.175	17.92	
H	9.167	22.908	20.51	
H	7.257	24.674	20.449	
H	7.291	22.16	19.128	
H	6.268	23.286	18.786	
H	9.038	23.425	18.261	
H	8.355	23.374	15.98	
H	7.841	22.075	16.725	
H	6.845	23.274	16.444	
H	8.715	25.472	17.234	
H	7.2	25.465	17.693	
H	8.354	25.557	18.774	
N	5.151	23.807	21.472	
C	3.968	23.196	22.025	
C	3.408	22.242	21.011	
O	3.712	22.346	19.825	
C	2.899	24.237	22.355	
O	2.401	24.735	21.124	
C	3.422	25.36	23.248	
H	5.053	24.624	21.222	
H	4.213	22.74	22.845	
H	2.189	23.82	22.868	
H	1.775	25.275	21.273	
H	2.707	25.991	23.427	
H	3.74	24.987	24.085	
H	4.151	25.817	22.8	
N	2.579	21.31	21.453	
C	2.054	20.387	20.456	
C	1.079	21.091	19.468	
O	1.021	20.681	18.297	
C	1.478	19.126	21.107	
C	2.484	18.324	21.954	
C	3.81	18.018	21.23	
O	3.786	17.659	20.047	
O	4.903	18.161	21.851	
H	2.32	21.195	22.265	
H	2.795	20.084	19.908	
H	0.73	19.38	21.67	
H	1.127	18.549	20.411	
H	2.676	18.819	22.766	
H	2.072	17.488	22.222	
N	0.362	22.158	19.867	
C	-0.454	22.929	18.901	
C	0.434	23.477	17.803	
O	0.09	23.457	16.621	
C	-1.205	24.103	19.588	
C	-1.903	25.034	18.604	
C	-2.573	26.2	19.268	
O	-1.956	26.827	20.151	
O	-3.722	26.488	18.88	
H	0.333	22.448	20.676	
H	-1.115	22.326	18.527	
H	-1.862	23.742	20.203	
H	-0.574	24.616	20.117	
H	-1.254	25.363	17.963	
H	-2.564	24.53	18.104	
N	1.566	24.052	18.218	
C	2.485	24.655	17.263	
C	3.062	23.574	16.332	
O	3.079	23.715	15.105	
C	3.623	25.36	17.993	
C	3.192	26.596	18.762	
C	4.205	26.993	19.825	
O	5.259	26.351	19.977	
N	3.938	28.067	20.55	
H	1.814	24.101	19.04	
H	1.997	25.306	16.736	
H	4.036	24.735	18.609	
H	4.302	25.612	17.348	
H	3.069	27.333	18.144	
H	2.333	26.431	19.181	
H	3.203	28.496	20.428	
H	4.5	28.336	21.143	
N	3.518	22.475	16.915	
C	4.102	21.404	16.122	
C	3.099	20.823	15.127	
O	3.394	20.645	13.942	
C	4.617	20.329	17.087	
C	5.487	19.27	16.394	
C	5.776	18.087	17.283	
N	6.198	18.394	18.655	
C	7.354	18.967	18.996	
N	8.269	19.32	18.101	
N	7.597	19.202	20.281	
H	3.499	22.33	17.762	
H	4.835	21.754	15.591	
H	5.132	20.753	17.791	
H	3.861	19.893	17.511	
H	5.04	18.964	15.589	
H	6.324	19.674	16.117	
H	4.979	17.536	17.325	
H	6.468	17.553	16.864	
H	5.656	18.188	19.291	
H	8.128	19.181	17.264	
H	9.003	19.687	18.358	
H	7.014	18.986	20.875	
H	8.337	19.571	20.518	
N	1.903	20.54	15.617	
C	0.879	19.946	14.782	
C	0.557	20.852	13.6	
O	0.301	20.372	12.507	
C	-0.381	19.68	15.594	
C	-0.198	18.555	16.617	
O	0.74	17.759	16.528	
N	-1.09	18.504	17.592	
H	1.665	20.685	16.431	
H	1.217	19.102	14.442	
H	-0.641	20.492	16.055	
H	-1.106	19.45	14.992	
H	-1.03	17.897	18.199	
H	-1.73	19.078	17.619	
N	0.541	22.164	13.818	
C	0.26	23.1	12.74	
C	1.32	23.059	11.653	
O	1.008	23.07	10.465	
H	0.69	22.53	14.582	
H	-0.606	22.895	12.353	
H	0.204	23.999	13.101	
N	2.604	23.021	12.055	
C	3.654	22.963	11.076	
C	3.627	21.641	10.299	
O	3.791	21.625	9.065	
C	5.026	23.16	11.736	
C	5.262	24.531	12.33	
C	5.134	25.683	11.585	
C	5.706	24.646	13.627	
C	5.404	26.943	12.143	
C	5.981	25.887	14.184	
C	5.83	27.04	13.436	
H	2.864	23.028	12.875	
H	3.503	23.685	10.446	
H	5.131	22.497	12.436	
H	5.715	22.986	11.076	
H	4.864	25.625	10.697	
H	5.824	23.879	14.139	
H	5.293	27.712	11.631	
H	6.269	25.943	15.067	
H	6.016	27.871	13.809	
N	3.431	20.537	11.002	
C	3.325	19.229	10.347	
C	2.164	19.208	9.374	
O	2.29	18.677	8.264	
C	3.27	18.092	11.39	
C	4.604	17.971	12.159	
C	2.879	16.77	10.737	
C	5.809	17.556	11.355	
H	3.356	20.516	11.858	
H	4.125	19.074	9.821	
H	2.583	18.315	12.037	
H	4.795	18.828	12.572	
H	4.483	17.33	12.877	
H	2.851	16.072	11.41	
H	2.005	16.858	10.326	
H	3.532	16.538	10.059	
H	6.586	17.512	11.935	
H	5.651	16.684	10.961	
H	5.967	18.204	10.651	
N	1.018	19.759	9.768	
C	-0.142	19.794	8.878	
C	0.181	20.582	7.609	
O	-0.25	20.218	6.529	
C	-1.355	20.388	9.605	
C	-2.611	20.437	8.739	
C	-3.156	19.075	8.461	
O	-3.341	18.29	9.39	
N	-3.47	18.789	7.224	
H	0.891	20.116	10.54	
H	-0.363	18.886	8.618	
H	-1.538	19.863	10.4	
H	-1.139	21.286	9.902	
H	-3.288	20.97	9.184	
H	-2.407	20.88	7.9	
H	-3.326	19.363	6.6	
H	-3.82	18.027	7.035	
N	0.921	21.682	7.733	
C	1.305	22.446	6.55	
C	2.126	21.627	5.605	
O	1.882	21.64	4.407	
C	2.096	23.687	6.935	
O	1.278	24.602	7.64	
H	1.207	21.998	8.48	
H	0.482	22.707	6.109	
H	2.855	23.435	7.484	
H	2.451	24.111	6.138	
H	1.123	25.27	7.155	
N	3.109	20.913	6.128	
C	3.839	19.977	5.271	
C	2.907	18.985	4.586	
O	3.073	18.75	3.411	
C	4.926	19.209	6.006	
C	5.908	20.126	6.708	
C	6.956	19.305	7.44	
C	6.57	21.055	5.699	
H	3.367	20.947	6.948	
H	4.266	20.535	4.602	
H	4.517	18.618	6.657	
H	5.405	18.648	5.376	
H	5.428	20.665	7.356	
H	7.58	19.899	7.886	
H	6.523	18.739	8.098	
H	7.436	18.752	6.804	
H	7.196	21.637	6.157	
H	7.044	20.528	5.037	
H	5.892	21.592	5.26	
N	1.99	18.366	5.351	
C	1.035	17.372	4.829	
C	0.216	17.952	3.685	
O	-0.081	17.276	2.71	
C	0.094	16.84	5.938	
C	-1.055	15.959	5.418	
C	-2.059	15.551	6.495	
C	-3.032	14.505	5.946	
N	-4.014	14.051	6.956	
H	1.906	18.514	6.194	
H	1.557	16.626	4.495	
H	0.617	16.329	6.575	
H	-0.282	17.594	6.419	
H	-1.524	16.436	4.715	
H	-0.681	15.159	5.017	
H	-1.589	15.193	7.264	
H	-2.55	16.33	6.8	
H	-3.505	14.877	5.185	
H	-2.53	13.741	5.622	
H	-4.356	13.268	6.707	
H	-3.61	13.961	7.744	
H	-4.668	14.651	7.025	
N	-0.143	19.215	3.826	
C	-0.955	19.842	2.814	
C	-0.157	20.165	1.572	
O	-0.699	20.152	0.484	
C	-1.617	21.074	3.392	
C	-2.903	20.735	4.102	
O	-3.707	19.941	3.578	
O	-3.13	21.249	5.19	
H	0.071	19.717	4.491	
H	-1.644	19.218	2.538	
H	-1.01	21.507	4.012	
H	-1.797	21.709	2.681	
N	1.127	20.444	1.728	
C	1.965	20.739	0.57	
C	3.437	20.605	0.963	
O	4.009	21.532	1.489	
C	1.706	22.138	0.064	
C	2.501	22.481	-1.209	
O	3.314	21.64	-1.648	
O	2.277	23.586	-1.756	
H	1.533	20.469	2.486	
H	1.751	20.11	-0.137	
H	0.758	22.24	-0.117	
H	1.932	22.774	0.76	
N	4.056	19.453	0.666	
C	5.451	19.296	1.073	
C	6.401	20.321	0.438	
O	7.494	20.511	0.991	
C	5.781	17.86	0.637	
C	4.488	17.154	0.642	
C	3.462	18.17	0.254	
H	5.569	19.451	2.023	
H	6.186	17.845	-0.244	
H	6.411	17.444	1.246	
H	4.495	16.412	0.017	
H	4.297	16.785	1.519	
H	3.286	18.15	-0.7	
H	2.617	18.01	0.702	
N	6.012	20.953	-0.672	
C	6.903	21.914	-1.331	
C	7.191	23.114	-0.472	
O	8.091	23.895	-0.791	
C	6.374	22.393	-2.683	
O	5.373	23.389	-2.549	
H	5.25	20.843	-1.055	
H	7.726	21.421	-1.478	
H	7.109	22.745	-3.209	
H	6.012	21.638	-3.172	
H	4.632	23.023	-2.4	
N	6.448	23.272	0.612	
C	6.705	24.424	1.455	
C	7.636	24.087	2.63	
O	7.812	24.907	3.537	
C	5.413	25.09	1.967	
C	4.527	25.468	0.816	
C	4.652	24.248	2.982	
H	5.816	22.748	0.869	
H	7.157	25.066	0.886	
H	5.688	25.891	2.44	
H	3.719	25.885	1.153	
H	4.995	26.091	0.238	
H	4.294	24.673	0.312	
H	3.705	24.444	2.92	
H	4.8	23.308	2.798	
H	4.966	24.455	3.875	
N	8.273	22.917	2.603	
C	9.046	22.475	3.727	
C	10.127	23.461	4.188	
O	10.345	23.589	5.384	
C	9.638	21.099	3.439	
O	10.514	21.094	2.344	
H	8.262	22.373	1.937	
H	8.43	22.421	4.474	
H	10.111	20.785	4.226	
H	8.917	20.471	3.272	
H	11.307	21.137	2.619	
N	10.771	24.115	3.243	
C	11.858	24.96	3.622	
C	11.353	26.145	4.469	
O	11.908	26.427	5.538	
C	12.631	25.459	2.399	
C	13.3	24.386	1.546	
C	13.902	25.001	0.288	
C	13.191	24.48	-0.971	
N	12.159	25.48	-1.31	
H	10.596	24.081	2.402	
H	12.469	24.434	4.161	
H	12.021	25.961	1.836	
H	13.313	26.079	2.701	
H	13.994	23.943	2.059	
H	12.651	23.708	1.302	
H	13.829	25.967	0.329	
H	14.848	24.79	0.241	
H	13.819	24.37	-1.702	
H	12.791	23.612	-0.808	
H	11.891	25.357	-2.15	
H	11.465	25.388	-0.761	
H	12.499	26.298	-1.224	
N	10.297	26.799	4.015	
C	9.874	27.969	4.741	
C	9.154	27.611	6.054	
O	9.207	28.373	7.006	
C	9.037	28.896	3.855	
C	7.839	28.265	3.224	
C	8.098	27.688	1.847	
O	9.22	27.215	1.571	
O	7.166	27.645	1.041	
H	9.833	26.592	3.321	
H	10.673	28.456	4.996	
H	8.743	29.651	4.389	
H	9.606	29.249	3.153	
H	7.514	27.559	3.804	
H	7.133	28.927	3.159	
N	8.498	26.466	6.117	
C	7.881	26.026	7.361	
C	8.939	25.624	8.379	
O	8.837	25.974	9.556	
C	6.867	24.887	7.071	
C	5.64	25.422	6.314	
C	6.473	24.142	8.342	
C	4.781	26.332	7.087	
H	8.397	25.928	5.454	
H	7.388	26.763	7.755	
H	7.306	24.241	6.496	
H	5.944	25.885	5.518	
H	5.106	24.669	6.017	
H	5.841	23.44	8.123	
H	7.263	23.75	8.746	
H	6.064	24.761	8.967	
H	4.036	26.62	6.537	
H	4.444	25.871	7.871	
H	5.296	27.106	7.364	
N	9.958	24.887	7.951	
C	11.03	24.522	8.866	
C	11.679	25.759	9.474	
O	11.965	25.809	10.666	
C	12.068	23.665	8.156	
C	13.275	23.28	9.018	
C	12.872	22.431	10.217	
C	14.318	22.563	8.184	
H	10.047	24.593	7.148	
H	10.644	24.003	9.589	
H	11.639	22.854	7.84	
H	12.384	24.143	7.373	
H	13.659	24.102	9.362	
H	13.661	22.209	10.736	
H	12.25	22.928	10.771	
H	12.448	21.615	9.908	
H	15.074	22.327	8.744	
H	13.932	21.757	7.806	
H	14.616	23.145	7.468	
N	11.953	26.76	8.641	
C	12.636	27.95	9.153	
C	11.784	28.647	10.212	
O	12.311	29.111	11.231	
C	12.991	28.915	8.007	
H	11.76	26.774	7.803	
H	13.464	27.668	9.571	
H	13.442	29.694	8.368	
H	13.576	28.467	7.376	
H	12.179	29.192	7.554	
N	10.468	28.727	9.998	
C	9.586	29.322	10.998	
C	9.604	28.497	12.294	
O	9.669	29.047	13.398	
C	8.147	29.424	10.496	
C	7.958	30.417	9.375	
C	6.497	30.594	8.985	
O	5.692	29.694	9.369	
O	6.143	31.593	8.331	
H	10.072	28.445	9.288	
H	9.919	30.217	11.171	
H	7.857	28.549	10.193	
H	7.572	29.673	11.237	
H	8.323	31.275	9.643	
H	8.462	30.124	8.6	
N	9.505	27.18	12.15	
C	9.455	26.303	13.301	
C	10.724	26.424	14.132	
O	10.656	26.424	15.371	
C	9.227	24.871	12.851	
H	9.466	26.778	11.391	
H	8.712	26.57	13.865	
H	9.195	24.289	13.626	
H	8.388	24.813	12.368	
H	9.953	24.595	12.27	
N	11.871	26.517	13.482	
C	13.131	26.664	14.198	
C	13.174	27.996	14.941	
O	13.61	28.043	16.095	
C	14.31	26.506	13.254	
C	14.467	25.07	12.755	
C	15.542	24.93	11.726	
C	16.911	25.267	12.219	
N	17.242	24.434	13.403	
H	11.945	26.497	12.625	
H	13.195	25.958	14.86	
H	14.195	27.099	12.495	
H	15.123	26.779	13.707	
H	14.667	24.491	13.507	
H	13.625	24.768	12.38	
H	15.544	24.018	11.397	
H	15.331	25.503	10.972	
H	17.562	25.117	11.516	
H	16.957	26.207	12.452	
H	18.125	24.404	13.508	
H	16.869	24.788	14.129	
H	16.93	23.609	13.282	
N	12.708	29.071	14.313	
C	12.655	30.364	14.989	
C	11.83	30.266	16.277	
O	12.258	30.699	17.367	
C	12.08	31.447	14.054	
C	13.097	31.999	13.06	
C	12.542	33.065	12.137	
C	13.567	33.471	11.09	
N	13.886	32.375	10.122	
H	12.42	29.074	13.503	
H	13.56	30.62	15.226	
H	11.329	31.076	13.565	
H	11.735	32.177	14.591	
H	13.848	32.368	13.551	
H	13.441	31.268	12.524	
H	11.742	32.734	11.699	
H	12.28	33.842	12.656	
H	13.234	34.24	10.601	
H	14.383	33.749	11.535	
H	14.432	32.685	9.491	
H	14.282	31.704	10.553	
H	13.134	32.083	9.745	
N	10.643	29.7	16.144	
C	9.736	29.597	17.261	
C	10.31	28.685	18.365	
O	10.197	28.968	19.561	
C	8.38	29.104	16.753	
C	7.262	28.977	17.788	
C	7.079	30.272	18.579	
C	5.978	28.559	17.066	
H	10.345	29.368	15.409	
H	9.617	30.47	17.666	
H	8.08	29.709	16.056	
H	8.509	28.236	16.339	
H	7.496	28.298	18.44	
H	6.365	30.159	19.225	
H	7.903	30.487	19.043	
H	6.853	30.993	17.971	
H	5.258	28.474	17.71	
H	5.744	29.231	16.407	
H	6.118	27.707	16.624	
N	10.919	27.565	17.964	
C	11.588	26.693	18.913	
C	12.651	27.457	19.714	
O	12.76	27.325	20.928	
C	12.244	25.512	18.167	
C	13.007	24.633	19.099	
O	12.435	23.798	19.785	
N	14.323	24.853	19.158	
H	10.952	27.299	17.147	
H	10.924	26.356	19.535	
H	11.56	24.992	17.717	
H	12.839	25.852	17.481	
H	14.812	24.396	19.698	
H	14.682	25.452	18.656	
N	13.473	28.214	18.993	
C	14.607	28.873	19.631	
C	14.104	29.955	20.584	
O	14.666	30.136	21.675	
C	15.511	29.479	18.559	
C	16.193	28.411	17.669	
O	16.087	27.177	17.971	
O	16.836	28.832	16.689	
H	13.394	28.357	18.149	
H	15.118	28.225	20.142	
H	14.987	30.073	17.999	
H	16.193	30.02	18.986	
N	13.028	30.642	20.216	
C	12.471	31.688	21.056	
C	11.904	31.142	22.371	
O	11.884	31.838	23.363	
C	11.4	32.44	20.297	
H	12.605	30.515	19.478	
H	13.194	32.291	21.287	
H	11.032	33.137	20.862	
H	11.786	32.839	19.502	
H	10.694	31.826	20.039	
N	11.518	29.887	22.386	
C	10.869	29.248	23.532	
C	11.807	28.348	24.335	
O	11.358	27.595	25.182	
C	9.62	28.505	23.079	
C	8.534	29.43	22.529	
C	7.29	28.696	22.061	
O	6.184	28.846	22.527	
N	7.493	27.892	21.039	
H	11.624	29.359	21.716	
H	10.608	29.954	24.144	
H	9.864	27.861	22.396	
H	9.26	28.003	23.827	
H	8.285	30.068	23.216	
H	8.898	29.939	21.788	
H	8.285	27.796	20.718	
H	6.833	27.463	20.692	
N	13.112	28.442	24.08	
C	14.091	27.603	24.782	
C	14.118	27.855	26.293	
O	14.029	29.005	26.731	
C	15.457	27.839	24.197	
H	13.453	28.984	23.506	
H	13.823	26.679	24.659	
H	16.107	27.286	24.659	
H	15.45	27.61	23.254	
H	15.697	28.773	24.3	
N	14.298	26.801	27.098	
C	14.49	27.048	28.519	
C	15.718	27.922	28.724	
O	16.739	27.754	28.037	
C	14.812	25.667	29.096	
C	14.37	24.723	28.091	
C	14.471	25.387	26.777	
H	13.721	27.48	28.923	
H	15.761	25.573	29.271	
H	14.352	25.523	29.938	
H	14.918	23.923	28.111	
H	13.457	24.446	28.263	
H	15.328	25.218	26.356	
H	13.788	25.073	26.164	
N	15.624	28.84	29.688	
C	16.752	29.695	30.072	
C	16.884	29.568	31.57	
O	15.877	29.248	32.198	
C	16.492	31.172	29.722	
C	16.587	31.596	28.27	
C	16.344	33.11	28.215	
C	16.823	33.797	26.947	
N	16.591	35.273	27.055	
O	17.938	29.837	32.164	
H	14.905	28.985	30.138	
H	17.553	29.42	29.598	
H	15.604	31.399	30.038	
H	17.12	31.711	30.229	
H	17.459	31.377	27.907	
H	15.93	31.125	27.733	
H	15.393	33.274	28.315	
H	16.785	33.522	28.975	
H	17.766	33.618	26.808	
H	16.351	33.442	26.178	
H	16.872	35.673	26.311	
H	15.722	35.43	27.165	
H	17.041	35.594	27.753	
Zn	17.919	29.932	34.195	
Zn	9.507	19.547	24.373	
S	15.65	26.105	35.922	
C	16.526	27.581	35.477	
N	17.089	28.53	35.191	
O	2.264	25.988	13.825	
O	7.565	33.8	7.851	
O	10.379	30.854	6.592	
O	12.806	22.871	-2.789	
O	0.373	26.495	21.453	
O	10.139	24.887	0.419	
O	14.561	18.791	16.105	
O	14.64	25.624	5.792	
O	11.367	31.864	9.044	
O	2.481	24.107	-4.426	
O	-2.378	22.704	15.667	
O	14.983	29.787	10.996	
O	12.868	21.234	3.62	
O	10.865	22.934	26.191	
O	-0.438	17.583	12.496	
O	3.929	15.074	16.562	
O	10.379	20.953	-0.525	
O	16.654	20.771	15.592	
O	10.062	22.794	-2.919	
O	18.223	22.511	10.491	
O	7.742	20.666	23.868	
O	2.238	16.308	18.412	
O	12.378	31.391	4.74	
O	15.884	25.11	15.869	
O	16.182	19.564	8.633	
O	2.612	16.808	14.817	
O	15.651	26.052	8.43	
O	-2.884	18.782	-0.397	
O	16.456	28.438	9.239	
O	17.776	24.368	8.628	
O	3.541	19.259	-3.106	
O	16.744	23.975	2.686	
O	6.092	25.554	-2.923	
O	-1.524	24.071	9.74	
O	17.196	23.068	16.984	
O	7.848	27.048	-1.587	
O	16.099	15.975	10.358	
O	-3.162	20.651	17.64	
O	17.159	22.677	0.297	
O	13.253	10.445	1.91	
O	16.407	15.95	-1.246	
O	16.444	20.786	6.146	
O	15.474	14.288	14.646	
O	1.327	15.157	1.258	
O	17.41	29.318	21.808	
O	17.852	22.801	6.44	
O	17.779	19.274	4.078	
O	-3.077	21.48	13.249	
O	6.817	22.923	-6.176	
O	-0.847	16.473	9.971	
O	15.193	20.18	4.392	
O	-0.225	27.204	13.283	
O	0.026	16.996	-0.718	
O	13.607	14.509	-5.75	
O	17.548	19.962	19.783	
O	0.825	14.192	-5.759	
O	15.93	13.814	-2.444	
O	3.987	22.584	-5.844	
O	5.991	17.89	-3.057	
O	15.581	12.638	7.541	
O	18.017	27.331	14.775	
O	-3.587	17.277	3.547	
O	18.979	28.325	10.202	
O	9.565	20.875	26.281	
O	6.656	16.178	21.82	
O	10.46	12.278	-3.594	
O	15.9	17.998	18.4	
O	12.084	16.583	-5.418	
O	-3.43	23.168	11.186	
O	-4.611	11.637	5.532	
O	8.359	32.357	5.611	
O	10.416	24.235	28.512	
O	4.781	15.24	21.036	
O	17.954	26.694	21.054	
O	4.687	19.549	24.321	
O	-5.267	16.664	5.849	
O	8.89	15.614	20.055	
O	19.957	18.903	5.989	
O	11.133	26.854	27.781	
O	18.567	19.284	1.553	
O	-3.469	25.286	22.398	
O	15.524	32.317	23.368	
O	4.819	28.985	1.339	
O	5.253	28.456	3.339	
O	15.951	12.03	13.175	
O	13.763	31.428	25.597	
O	-5.187	25.132	20.351	
O	10.41	25.429	26.562	
O	18.991	19.558	15.807	
O	16.243	31.293	15.627	
O	14.064	33.077	16.789	
O	4.313	8.978	-9.358	
O	18.634	17.578	13.716	
O	-2.36	25.71	12.31	
O	2.235	7.5	-9.249	
O	-0.974	29.048	15.574	
O	18.902	18.776	8.153	
O	1.722	17.115	-2.833	
O	-2.735	27.261	22.735	
O	16.75	30.73	12.815	
O	1.133	6.594	-7.65	
O	15.525	9.179	1.646	
O	-3.101	18.743	12.991	
O	14.926	22.916	4.59	
O	9.045	21.396	-5.139	
O	17.821	17.558	9.492	
O	16.29	13.066	10.204	
O	8.256	18.557	-4.074	
O	18.875	26.616	18.323	
O	20.377	15.77	13.648	
O	5.688	15.324	-3.684	
O	16.058	26.662	3.411	
O	14.719	23.287	0.567	
O	16.329	29.232	14.05	
O	9.814	6.566	-4.664	
O	11.135	8.884	-5.095	
O	0.464	10.254	-11.364	
O	18.62	13.696	-2.933	
O	19.683	12.668	-1.366	
O	4.929	14.025	-0.569	
O	3.796	15.055	-2.644	
O	14.483	16.525	20.391	
O	16.234	14.976	17.358	
O	16.233	16.797	15.117	
O	0.28	26.929	6.88	
O	-2.216	16.014	1.731	
O	4.37	30.081	-1.012	
O	14.024	32.787	8.492	
O	19.998	24.298	13.125	
O	9.235	18.371	22.798	
O	10.177	17.034	21.653	
O	7.573	17.849	23.758	
O	19.942	31.313	27.91	
O	19.852	31.679	30.609	
}

set basis cc-pvdz

energy('b3lyp')
--------------------------------------------------------------------------

*** tstart() called on Hunters-MacBook-Pro-2.local
*** at Mon May  3 14:59:51 2021

   => Loading Basis Set <=

    Name: CC-PVDZ
    Role: ORBITAL
    Keyword: BASIS
    atoms 1, 13, 25, 32, 39, 47, 61, 81, 88, 95, 103, 117, 132, 140, 149, 157, 166, 173, 180, 190, 210, 231, 246, 265, 284, 290, 293, 301, 320, 334, 341, 348, 367, 381, 396, 411, 419, 428, 435, 437-438, 452, 459, 466, 473, 493, 512, 520, 529, 540, 559, 567, 581, 593, 605, 619, 630, 646, 657, 665, 679, 694, 713, 732, 742, 757, 767, 775, 789, 797, 811, 830, 837, 844, 856, 866, 874, 883, 893, 907, 915, 934                                                                                                                                                                                                                                                                                                                                                                                                                                                                                                                                                                                                                 entry N          line   168 file /opt/anaconda3/share/psi4/basis/cc-pvdz.gbs 
    atoms 2-3, 5, 14-15, 17-18, 26-27, 29-30, 40-41, 43-46, 62-63, 65-71, 82-83, 85-86, 96-97, 99-102, 118-119, 121-123, 133-134, 136-138, 150-151, 153-155, 167-168, 170-171, 181-182, 184, 191-192, 194-200, 211-212, 214-220, 232-233, 235-237, 247-248, 250-253, 266-267, 269-272, 285-286, 288-289, 291-292, 302-303, 305-308, 321-322, 324-326, 335-336, 338-339, 349-350, 352-355, 368-369, 371, 373, 382-383, 385-387, 397-398, 400-402, 412-413, 415-417, 429-430, 432-434, 436, 453-454, 456-457, 467-468, 474-475, 477-483, 494-495, 497-500, 513-514, 516-518, 530-531, 533, 541-542, 544-547, 560-561, 563-566, 582-583, 585-586, 594-595, 597-598, 606-607, 609-611, 620-621, 623, 631-632, 634-636, 647-648, 650, 658-659, 661-664, 680-681, 683-685, 695-696, 698-701, 714-715, 717-720, 733-734, 736, 743-744, 746-748, 758-759, 761, 768-769, 771-774, 790-791, 793-796, 812-813, 815-818, 831-832, 834-835, 845-846, 848-849, 857-858, 860, 867-868, 870-872, 884-885, 887, 894-895, 897-899, 908-909, 911-914, 933 entry C          line   138 file /opt/anaconda3/share/psi4/basis/cc-pvdz.gbs 
    atoms 4, 16, 19-20, 28, 31, 42, 64, 84, 87, 98, 120, 124-125, 135, 139, 152, 156, 169, 172, 183, 193, 213, 221, 234, 238-239, 249, 268, 287, 304, 323, 337, 340, 351, 370, 372, 384, 388-389, 399, 403-404, 414, 418, 431, 455, 458, 469, 476, 496, 515, 519, 532, 534, 543, 562, 584, 587-588, 596, 599-600, 608, 622, 624, 633, 649, 651, 660, 682, 686-687, 697, 716, 735, 745, 749-750, 760, 770, 792, 814, 833, 836, 847, 850-851, 859, 869, 873, 886, 896, 910, 916, 935-1068                                                                                                                                                                                                                                                                                                                                                                                                                                                                                                                                                entry O          line   198 file /opt/anaconda3/share/psi4/basis/cc-pvdz.gbs 
    atoms 6-12, 21-24, 33-38, 48-60, 72-80, 89-94, 104-116, 126-131, 141-148, 158-165, 174-179, 185-189, 201-209, 222-230, 240-245, 254-264, 273-283, 294-300, 309-319, 327-333, 342-347, 356-366, 374-380, 390-395, 405-410, 420-427, 439-451, 460-465, 470-472, 484-492, 501-511, 521-528, 535-539, 548-558, 568-580, 589-592, 601-604, 612-618, 625-629, 637-645, 652-656, 666-678, 688-693, 702-712, 721-731, 737-741, 751-756, 762-766, 776-788, 798-810, 819-829, 838-843, 852-855, 861-865, 875-882, 888-892, 900-906, 917-929                                                                                                                                                                                                                                                                                                                                                                                                                                                                                                  entry H          line    22 file /opt/anaconda3/share/psi4/basis/cc-pvdz.gbs 
    atoms 930-931                                                                                                                                                                                                                                                                                                                                                                                                                                                                                                                                                                                                                                                                                                                                                                                                                                                                                                                                                                                                                      entry ZN         line  2599 file /opt/anaconda3/share/psi4/basis/cc-pvdz.gbs 
    atoms 932                                                                                                                                                                                                                                                                                                                                                                                                                                                                                                                                                                                                                                                                                                                                                                                                                                                                                                                                                                                                                          entry S          line   598 file /opt/anaconda3/share/psi4/basis/cc-pvdz.gbs 


         ---------------------------------------------------------
                                   SCF
               by Justin Turney, Rob Parrish, Andy Simmonett
                          and Daniel G. A. Smith
                              RKS Reference
                        1 Threads,    500 MiB Core
         ---------------------------------------------------------

  ==> Geometry <==

    Molecular point group: c1
    Full point group: C1

    Geometry (in Angstrom), charge = 0, multiplicity = 2:

       Center              X                  Y                   Z               Mass       
    ------------   -----------------  -----------------  -----------------  -----------------
         N           -8.158633485478   -11.478115677568   -19.422119899707    14.003074004430
         C           -7.319633485478   -10.627115677568   -18.587119899707    12.000000000000
         C           -6.956633485478   -11.453115677568   -17.372119899707    12.000000000000
         O           -7.706633485478   -11.521115677568   -16.389119899707    15.994914619570
         C           -8.047633485478    -9.370115677568   -18.201119899707    12.000000000000
         H           -8.267633485478   -11.098115677568   -20.219119899707     1.007825032230
         H           -7.769633485478   -12.272115677568   -19.523119899707     1.007825032230
         H           -8.952633485478   -11.585115677568   -19.034119899707     1.007825032230
         H           -6.522633485478   -10.342115677568   -19.060119899707     1.007825032230
         H           -7.472633485478    -8.820115677568   -17.647119899707     1.007825032230
         H           -8.291633485478    -8.879115677568   -19.001119899707     1.007825032230
         H           -8.849633485478    -9.599115677568   -17.706119899707     1.007825032230
         N           -5.706633485478   -11.936115677568   -17.405119899707    14.003074004430
         C           -4.951633485478   -12.330115677568   -16.215119899707    12.000000000000
         C           -4.697633485478   -11.076115677568   -15.392119899707    12.000000000000
         O           -4.414633485478   -10.016115677568   -15.952119899707    15.994914619570
         C           -3.609633485478   -12.949115677568   -16.624119899707    12.000000000000
         C           -2.686633485478   -11.953115677568   -17.310119899707    12.000000000000
         O           -3.170633485478   -11.157115677568   -18.148119899707    15.994914619570
         O           -1.472633485478   -11.965115677568   -17.009119899707    15.994914619570
         H           -5.268633485478   -12.044115677568   -18.137119899707     1.007825032230
         H           -5.451633485478   -12.985115677568   -15.703119899707     1.007825032230
         H           -3.168633485478   -13.304115677568   -15.836119899707     1.007825032230
         H           -3.771633485478   -13.697115677568   -17.220119899707     1.007825032230
         N           -4.806633485478   -11.181115677568   -14.074119899707    14.003074004430
         C           -4.603633485478   -10.033115677568   -13.234119899707    12.000000000000
         C           -3.692633485478   -10.354115677568   -12.103119899707    12.000000000000
         O           -3.796633485478    -9.724115677568   -11.064119899707    15.994914619570
         C           -5.927633485478    -9.499115677568   -12.686119899707    12.000000000000
         C           -6.740633485478    -8.803115677568   -13.743119899707    12.000000000000
         O           -6.283633485478    -7.841115677568   -14.363119899707    15.994914619570
         N           -7.944633485478    -9.295115677568   -13.975119899707    14.003074004430
         H           -4.996633485478   -11.908115677568   -13.656119899707     1.007825032230
         H           -4.196633485478    -9.346115677568   -13.785119899707     1.007825032230
         H           -6.442633485478   -10.233115677568   -12.316119899707     1.007825032230
         H           -5.749633485478    -8.882115677568   -11.959119899707     1.007825032230
         H           -8.443633485478    -8.942115677568   -14.580119899707     1.007825032230
         H           -8.228633485478    -9.968115677568   -13.521119899707     1.007825032230
         N           -2.770633485478   -11.293115677568   -12.300119899707    14.003074004430
         C           -1.724633485478   -11.434115677568   -11.297119899707    12.000000000000
         C           -0.875633485478   -10.133115677568   -11.301119899707    12.000000000000
         O           -0.588633485478    -9.553115677568   -12.348119899707    15.994914619570
         C           -0.973633485478   -12.777115677568   -11.461119899707    12.000000000000
         C           -1.844633485478   -14.004115677568   -10.954119899707    12.000000000000
         C           -1.375633485478   -15.387115677568   -11.432119899707    12.000000000000
         C           -2.261633485478   -16.504115677568   -10.876119899707    12.000000000000
         N           -1.863633485478   -17.825115677568   -11.420119899707    14.003074004430
         H           -2.731633485478   -11.831115677568   -12.970119899707     1.007825032230
         H           -2.078633485478   -11.509115677568   -10.397119899707     1.007825032230
         H           -0.743633485478   -12.907115677568   -12.394119899707     1.007825032230
         H           -0.140633485478   -12.745115677568   -10.965119899707     1.007825032230
         H           -1.849633485478   -13.998115677568    -9.984119899707     1.007825032230
         H           -2.760633485478   -13.872115677568   -11.243119899707     1.007825032230
         H           -1.386633485478   -15.416115677568   -12.401119899707     1.007825032230
         H           -0.457633485478   -15.532115677568   -11.154119899707     1.007825032230
         H           -2.199633485478   -16.518115677568    -9.908119899707     1.007825032230
         H           -3.188633485478   -16.326115677568   -11.098119899707     1.007825032230
         H           -2.392633485478   -18.457115677568   -11.083119899707     1.007825032230
         H           -1.940633485478   -17.817115677568   -12.307119899707     1.007825032230
         H           -1.018633485478   -17.996115677568   -11.198119899707     1.007825032230
         N           -0.568633485478    -9.622115677568   -10.115119899707    14.003074004430
         C            0.197366514522    -8.387115677568    -9.971119899707    12.000000000000
         C            1.586366514522    -8.524115677568   -10.589119899707    12.000000000000
         O            2.212366514522    -9.587115677568   -10.532119899707    15.994914619570
         C            0.385366514522    -8.023115677568    -8.491119899707    12.000000000000
         C           -0.851633485478    -7.521115677568    -7.798119899707    12.000000000000
         C           -2.023633485478    -7.231115677568    -8.485119899707    12.000000000000
         C           -0.831633485478    -7.356115677568    -6.444119899707    12.000000000000
         C           -3.125633485478    -6.757115677568    -7.822119899707    12.000000000000
         C           -1.921633485478    -6.895115677568    -5.787119899707    12.000000000000
         C           -3.063633485478    -6.563115677568    -6.470119899707    12.000000000000
         H           -0.798633485478    -9.981115677568    -9.368119899707     1.007825032230
         H           -0.305633485478    -7.695115677568   -10.427119899707     1.007825032230
         H            0.709366514522    -8.805115677568    -8.018119899707     1.007825032230
         H            1.075366514522    -7.345115677568    -8.424119899707     1.007825032230
         H           -2.060633485478    -7.360115677568    -9.405119899707     1.007825032230
         H           -0.060633485478    -7.563115677568    -5.967119899707     1.007825032230
         H           -3.908633485478    -6.569115677568    -8.288119899707     1.007825032230
         H           -1.895633485478    -6.802115677568    -4.862119899707     1.007825032230
         H           -3.792633485478    -6.207115677568    -6.015119899707     1.007825032230
         N            2.089366514522    -7.443115677568   -11.164119899707    14.003074004430
         C            3.506366514522    -7.406115677568   -11.528119899707    12.000000000000
         C            4.368366514522    -7.112115677568   -10.295119899707    12.000000000000
         O            3.841366514522    -6.979115677568    -9.189119899707    15.994914619570
         C            3.768366514522    -6.415115677568   -12.653119899707    12.000000000000
         C            3.457366514522    -4.972115677568   -12.275119899707    12.000000000000
         O            3.571366514522    -4.554115677568   -11.138119899707    15.994914619570
         N            3.107366514522    -4.195115677568   -13.263119899707    14.003074004430
         H            1.643366514522    -6.732115677568   -11.351119899707     1.007825032230
         H            3.756366514522    -8.281115677568   -11.864119899707     1.007825032230
         H            4.698366514522    -6.479115677568   -12.921119899707     1.007825032230
         H            3.234366514522    -6.663115677568   -13.424119899707     1.007825032230
         H            2.950366514522    -3.362115677568   -13.120119899707     1.007825032230
         H            3.034366514522    -4.516115677568   -14.057119899707     1.007825032230
         N            5.692366514522    -7.040115677568   -10.455119899707    14.003074004430
         C            6.545366514522    -6.960115677568    -9.269119899707    12.000000000000
         C            6.317366514522    -5.646115677568    -8.507119899707    12.000000000000
         O            6.248366514522    -5.652115677568    -7.281119899707    15.994914619570
         C            8.040366514522    -7.189115677568    -9.565119899707    12.000000000000
         C            8.442366514522    -8.669115677568    -9.747119899707    12.000000000000
         C            9.933366514522    -8.917115677568    -9.464119899707    12.000000000000
         C           10.209366514522    -9.302115677568    -8.025119899707    12.000000000000
         N           10.373366514522   -10.781115677568    -7.869119899707    14.003074004430
         H            6.102366514522    -7.036115677568   -11.211119899707     1.007825032230
         H            6.276366514522    -7.696115677568    -8.697119899707     1.007825032230
         H            8.276366514522    -6.701115677568   -10.369119899707     1.007825032230
         H            8.562366514522    -6.811115677568    -8.840119899707     1.007825032230
         H            7.908366514522    -9.221115677568    -9.154119899707     1.007825032230
         H            8.238366514522    -8.947115677568   -10.654119899707     1.007825032230
         H           10.255366514522    -9.621115677568   -10.049119899707     1.007825032230
         H           10.435366514522    -8.116115677568    -9.681119899707     1.007825032230
         H           11.012366514522    -8.853115677568    -7.718119899707     1.007825032230
         H            9.480366514522    -8.996115677568    -7.463119899707     1.007825032230
         H           10.533366514522   -10.974115677568    -7.015119899707     1.007825032230
         H            9.628366514522   -11.192115677568    -8.131119899707     1.007825032230
         H           11.055366514522   -11.059115677568    -8.369119899707     1.007825032230
         N            6.186366514522    -4.508115677568    -9.183119899707    14.003074004430
         C            6.009366514522    -3.246115677568    -8.440119899707    12.000000000000
         C            4.668366514522    -3.238115677568    -7.701119899707    12.000000000000
         O            4.554366514522    -2.679115677568    -6.613119899707    15.994914619570
         C            6.170366514522    -1.993115677568    -9.321119899707    12.000000000000
         C            5.063366514522    -1.720115677568   -10.329119899707    12.000000000000
         C            5.326366514522    -0.481115677568   -11.184119899707    12.000000000000
         O            6.511366514522    -0.225115677568   -11.552119899707    15.994914619570
         O            4.348366514522     0.234884322432   -11.495119899707    15.994914619570
         H            6.195366514522    -4.436115677568   -10.040119899707     1.007825032230
         H            6.726366514522    -3.206115677568    -7.787119899707     1.007825032230
         H            6.246366514522    -1.221115677568    -8.739119899707     1.007825032230
         H            7.008366514522    -2.068115677568    -9.804119899707     1.007825032230
         H            4.963366514522    -2.491115677568   -10.909119899707     1.007825032230
         H            4.223366514522    -1.609115677568    -9.857119899707     1.007825032230
         N            3.663366514522    -3.847115677568    -8.304119899707    14.003074004430
         C            2.357366514522    -3.898115677568    -7.671119899707    12.000000000000
         C            2.374366514522    -4.853115677568    -6.462119899707    12.000000000000
         O            1.805366514522    -4.534115677568    -5.421119899707    15.994914619570
         C            1.319366514522    -4.328115677568    -8.683119899707    12.000000000000
         C            1.102366514522    -3.283115677568    -9.741119899707    12.000000000000
         C            0.430366514522    -3.815115677568   -10.947119899707    12.000000000000
         O            0.168366514522    -5.015115677568   -11.073119899707    15.994914619570
         N            0.177366514522    -2.920115677568   -11.871119899707    14.003074004430
         H            3.713366514522    -4.233115677568    -9.071119899707     1.007825032230
         H            2.129366514522    -3.013115677568    -7.345119899707     1.007825032230
         H            1.599366514522    -5.157115677568    -9.101119899707     1.007825032230
         H            0.481366514522    -4.508115677568    -8.230119899707     1.007825032230
         H            0.570366514522    -2.561115677568    -9.372119899707     1.007825032230
         H            1.958366514522    -2.903115677568    -9.994119899707     1.007825032230
         H            0.378366514522    -2.095115677568   -11.737119899707     1.007825032230
         H           -0.189633485478    -3.158115677568   -12.611119899707     1.007825032230
         N            3.002366514522    -6.021115677568    -6.619119899707    14.003074004430
         C            3.148366514522    -6.939115677568    -5.487119899707    12.000000000000
         C            3.929366514522    -6.277115677568    -4.350119899707    12.000000000000
         O            3.561366514522    -6.396115677568    -3.189119899707    15.994914619570
         C            3.844366514522    -8.229115677568    -5.917119899707    12.000000000000
         C            4.007366514522    -9.209115677568    -4.745119899707    12.000000000000
         C            4.592366514522   -10.513115677568    -5.212119899707    12.000000000000
         O            3.946366514522   -11.283115677568    -5.927119899707    15.994914619570
         N            5.839366514522   -10.759115677568    -4.846119899707    14.003074004430
         H            3.345366514522    -6.297115677568    -7.358119899707     1.007825032230
         H            2.259366514522    -7.160115677568    -5.168119899707     1.007825032230
         H            3.332366514522    -8.652115677568    -6.624119899707     1.007825032230
         H            4.716366514522    -8.018115677568    -6.286119899707     1.007825032230
         H            4.581366514522    -8.817115677568    -4.068119899707     1.007825032230
         H            3.145366514522    -9.368115677568    -4.329119899707     1.007825032230
         H            6.259366514522   -10.199115677568    -4.346119899707     1.007825032230
         H            6.230366514522   -11.479115677568    -5.108119899707     1.007825032230
         N            5.019366514522    -5.586115677568    -4.689119899707    14.003074004430
         C            5.829366514522    -4.920115677568    -3.671119899707    12.000000000000
         C            4.981366514522    -3.892115677568    -2.921119899707    12.000000000000
         O            4.995366514522    -3.842115677568    -1.678119899707    15.994914619570
         C            7.028366514522    -4.199115677568    -4.316119899707    12.000000000000
         C            8.117366514522    -5.154115677568    -4.828119899707    12.000000000000
         O            8.173366514522    -6.318115677568    -4.457119899707    15.994914619570
         N            8.987366514522    -4.638115677568    -5.679119899707    14.003074004430
         H            5.303366514522    -5.492115677568    -5.495119899707     1.007825032230
         H            6.155366514522    -5.595115677568    -3.055119899707     1.007825032230
         H            6.710366514522    -3.657115677568    -5.055119899707     1.007825032230
         H            7.419366514522    -3.593115677568    -3.667119899707     1.007825032230
         H            9.622366514522    -5.125115677568    -5.993119899707     1.007825032230
         H            8.918366514522    -3.815115677568    -5.919119899707     1.007825032230
         N            4.258366514522    -3.051115677568    -3.662119899707    14.003074004430
         C            3.418366514522    -2.016115677568    -3.050119899707    12.000000000000
         C            2.480366514522    -2.706115677568    -2.091119899707    12.000000000000
         O            2.309366514522    -2.299115677568    -0.954119899707    15.994914619570
         C            2.613366514522    -1.245115677568    -4.102119899707    12.000000000000
         H            4.239366514522    -3.062115677568    -4.522119899707     1.007825032230
         H            3.979366514522    -1.371115677568    -2.593119899707     1.007825032230
         H            2.070366514522    -0.571115677568    -3.664119899707     1.007825032230
         H            3.221366514522    -0.816115677568    -4.725119899707     1.007825032230
         H            2.038366514522    -1.860115677568    -4.584119899707     1.007825032230
         N            1.882366514522    -3.779115677568    -2.580119899707    14.003074004430
         C            0.772366514522    -4.404115677568    -1.884119899707    12.000000000000
         C            1.190366514522    -4.941115677568    -0.537119899707    12.000000000000
         O            0.525366514522    -4.697115677568     0.475880100293    15.994914619570
         C            0.222366514522    -5.552115677568    -2.724119899707    12.000000000000
         C           -1.063633485478    -6.133115677568    -2.198119899707    12.000000000000
         C           -1.073633485478    -7.143115677568    -1.275119899707    12.000000000000
         C           -2.277633485478    -5.647115677568    -2.701119899707    12.000000000000
         C           -2.280633485478    -7.657115677568    -0.850119899707    12.000000000000
         C           -3.486633485478    -6.157115677568    -2.313119899707    12.000000000000
         C           -3.500633485478    -7.133115677568    -1.385119899707    12.000000000000
         H            2.105366514522    -4.163115677568    -3.317119899707     1.007825032230
         H            0.092366514522    -3.727115677568    -1.746119899707     1.007825032230
         H            0.077366514522    -5.237115677568    -3.630119899707     1.007825032230
         H            0.889366514522    -6.255115677568    -2.771119899707     1.007825032230
         H           -0.274633485478    -7.479115677568    -0.938119899707     1.007825032230
         H           -2.261633485478    -4.953115677568    -3.320119899707     1.007825032230
         H           -2.301633485478    -8.340115677568    -0.219119899707     1.007825032230
         H           -4.278633485478    -5.838115677568    -2.681119899707     1.007825032230
         H           -4.314633485478    -7.471115677568    -1.088119899707     1.007825032230
         N            2.278366514522    -5.706115677568    -0.550119899707    14.003074004430
         C            2.802366514522    -6.270115677568     0.659880100293    12.000000000000
         C            3.269366514522    -5.170115677568     1.592880100293    12.000000000000
         O            3.058366514522    -5.247115677568     2.796880100293    15.994914619570
         C            3.932366514522    -7.246115677568     0.328880100293    12.000000000000
         C            3.433366514522    -8.648115677568     0.027880100293    12.000000000000
         C            2.839366514522    -8.952115677568    -1.174119899707    12.000000000000
         C            3.589366514522    -9.657115677568     0.949880100293    12.000000000000
         C            2.348366514522   -10.227115677568    -1.437119899707    12.000000000000
         C            3.120366514522   -10.944115677568     0.701880100293    12.000000000000
         C            2.512366514522   -11.238115677568    -0.503119899707    12.000000000000
         O            2.063366514522   -12.503115677568    -0.816119899707    15.994914619570
         H            2.721366514522    -5.904115677568    -1.260119899707     1.007825032230
         H            2.103366514522    -6.763115677568     1.115880100293     1.007825032230
         H            4.427366514522    -6.913115677568    -0.436119899707     1.007825032230
         H            4.551366514522    -7.281115677568     1.074880100293     1.007825032230
         H            2.764366514522    -8.292115677568    -1.825119899707     1.007825032230
         H            4.017366514522    -9.476115677568     1.755880100293     1.007825032230
         H            1.910366514522   -10.401115677568    -2.239119899707     1.007825032230
         H            3.216366514522   -11.606115677568     1.347880100293     1.007825032230
         H            2.219366514522   -13.023115677568    -0.175119899707     1.007825032230
         N            3.910366514522    -4.149115677568     1.043880100293    14.003074004430
         C            4.387366514522    -3.074115677568     1.888880100293    12.000000000000
         C            3.199366514522    -2.456115677568     2.640880100293    12.000000000000
         O            3.278366514522    -2.250115677568     3.857880100293    15.994914619570
         C            5.208366514522    -2.009115677568     1.123880100293    12.000000000000
         C            5.828366514522    -1.004115677568     2.124880100293    12.000000000000
         C            6.952366514522    -0.113115677568     1.633880100293    12.000000000000
         O            7.364366514522    -0.206115677568     0.469880100293    15.994914619570
         O            7.451366514522     0.688884322432     2.479880100293    15.994914619570
         H            4.075366514522    -4.062115677568     0.204880100293     1.007825032230
         H            5.010366514522    -3.453115677568     2.528880100293     1.007825032230
         H            5.909366514522    -2.438115677568     0.607880100293     1.007825032230
         H            4.638366514522    -1.541115677568     0.493880100293     1.007825032230
         H            5.116366514522    -0.432115677568     2.450880100293     1.007825032230
         H            6.158366514522    -1.507115677568     2.885880100293     1.007825032230
         N            2.099366514522    -2.192115677568     1.939880100293    14.003074004430
         C            0.950366514522    -1.591115677568     2.572880100293    12.000000000000
         C            0.266366514522    -2.522115677568     3.573880100293    12.000000000000
         O           -0.165633485478    -2.072115677568     4.638880100293    15.994914619570
         C           -0.024633485478    -1.105115677568     1.511880100293    12.000000000000
         C            0.638366514522     0.030884322432     0.727880100293    12.000000000000
         C           -1.358633485478    -0.694115677568     2.137880100293    12.000000000000
         C           -0.107633485478     0.404884322432    -0.507119899707    12.000000000000
         H            2.006366514522    -2.355115677568     1.100880100293     1.007825032230
         H            1.264366514522    -0.833115677568     3.089880100293     1.007825032230
         H           -0.234633485478    -1.823115677568     0.893880100293     1.007825032230
         H            0.715366514522     0.809884322432     1.300880100293     1.007825032230
         H            1.540366514522    -0.233115677568     0.486880100293     1.007825032230
         H           -1.961633485478    -0.388115677568     1.442880100293     1.007825032230
         H           -1.750633485478    -1.455115677568     2.593880100293     1.007825032230
         H           -1.210633485478     0.022884322432     2.774880100293     1.007825032230
         H            0.357366514522     1.125884322432    -0.960119899707     1.007825032230
         H           -0.164633485478    -0.363115677568    -1.096119899707     1.007825032230
         H           -1.001633485478     0.695884322432    -0.269119899707     1.007825032230
         N            0.172366514522    -3.811115677568     3.259880100293    14.003074004430
         C           -0.349633485478    -4.762115677568     4.227880100293    12.000000000000
         C            0.383366514522    -4.679115677568     5.551880100293    12.000000000000
         O           -0.214633485478    -4.918115677568     6.597880100293    15.994914619570
         C           -0.228633485478    -6.203115677568     3.730880100293    12.000000000000
         C           -1.248633485478    -6.602115677568     2.655880100293    12.000000000000
         C           -0.971633485478    -8.037115677568     2.288880100293    12.000000000000
         C           -2.688633485478    -6.397115677568     3.114880100293    12.000000000000
         H            0.402366514522    -4.149115677568     2.502880100293     1.007825032230
         H           -1.282633485478    -4.526115677568     4.346880100293     1.007825032230
         H            0.664366514522    -6.335115677568     3.375880100293     1.007825032230
         H           -0.324633485478    -6.802115677568     4.487880100293     1.007825032230
         H           -1.150633485478    -6.030115677568     1.878880100293     1.007825032230
         H           -1.600633485478    -8.324115677568     1.608880100293     1.007825032230
         H           -0.067633485478    -8.115115677568     1.946880100293     1.007825032230
         H           -1.068633485478    -8.597115677568     3.074880100293     1.007825032230
         H           -3.295633485478    -6.661115677568     2.405880100293     1.007825032230
         H           -2.857633485478    -6.937115677568     3.902880100293     1.007825032230
         H           -2.830633485478    -5.462115677568     3.328880100293     1.007825032230
         N            1.672366514522    -4.376115677568     5.493880100293    14.003074004430
         C            2.546366514522    -4.515115677568     6.634880100293    12.000000000000
         C            2.998366514522    -3.209115677568     7.303880100293    12.000000000000
         O            3.651366514522    -3.266115677568     8.329880100293    15.994914619570
         C            3.736366514522    -5.397115677568     6.243880100293    12.000000000000
         C            3.318366514522    -6.785115677568     5.862880100293    12.000000000000
         N            3.958366514522    -7.514115677568     4.897880100293    14.003074004430
         C            2.299366514522    -7.561115677568     6.296880100293    12.000000000000
         C            3.355366514522    -8.677115677568     4.760880100293    12.000000000000
         N            2.338366514522    -8.740115677568     5.595880100293    14.003074004430
         H            2.062366514522    -4.083115677568     4.785880100293     1.007825032230
         H            2.016366514522    -4.937115677568     7.328880100293     1.007825032230
         H            4.208366514522    -4.989115677568     5.500880100293     1.007825032230
         H            4.360366514522    -5.442115677568     6.985880100293     1.007825032230
         H            1.681366514522    -7.335115677568     6.953880100293     1.007825032230
         H            3.607366514522    -9.348115677568     4.167880100293     1.007825032230
         H            1.796366514522    -9.401115677568     5.685880100293     1.007825032230
         N            2.664366514522    -2.046115677568     6.747880100293    14.003074004430
         C            3.081366514522    -0.778115677568     7.353880100293    12.000000000000
         C            2.604366514522    -0.746115677568     8.795880100293    12.000000000000
         O            1.408366514522    -0.842115677568     9.047880100293    15.994914619570
         C            2.532366514522     0.418884322432     6.575880100293    12.000000000000
         C            3.225366514522     0.738884322432     5.255880100293    12.000000000000
         C            2.363366514522     1.690884322432     4.432880100293    12.000000000000
         C            4.576366514522     1.358884322432     5.467880100293    12.000000000000
         H            2.201366514522    -1.967115677568     6.026880100293     1.007825032230
         H            4.049366514522    -0.716115677568     7.326880100293     1.007825032230
         H            1.592366514522     0.260884322432     6.395880100293     1.007825032230
         H            2.584366514522     1.202884322432     7.144880100293     1.007825032230
         H            3.346366514522    -0.099115677568     4.782880100293     1.007825032230
         H            2.810366514522     1.889884322432     3.594880100293     1.007825032230
         H            1.505366514522     1.275884322432     4.250880100293     1.007825032230
         H            2.225366514522     2.512884322432     4.928880100293     1.007825032230
         H            4.984366514522     1.547884322432     4.608880100293     1.007825032230
         H            4.478366514522     2.184884322432     5.966880100293     1.007825032230
         H            5.139366514522     0.745884322432     5.964880100293     1.007825032230
         N            3.532366514522    -0.582115677568     9.757880100293    14.003074004430
         C            3.130366514522    -0.889115677568    11.143880100293    12.000000000000
         C            2.253366514522     0.155884322432    11.799880100293    12.000000000000
         O            1.599366514522    -0.181115677568    12.807880100293    15.994914619570
         C            4.474366514522    -0.983115677568    11.887880100293    12.000000000000
         C            5.429366514522    -0.192115677568    11.067880100293    12.000000000000
         C            4.997366514522    -0.434115677568     9.635880100293    12.000000000000
         H            2.587366514522    -1.692115677568    11.165880100293     1.007825032230
         H            4.403366514522    -0.625115677568    12.786880100293     1.007825032230
         H            4.764366514522    -1.905115677568    11.971880100293     1.007825032230
         H            5.391366514522     0.750884322432    11.292880100293     1.007825032230
         H            6.343366514522    -0.482115677568    11.213880100293     1.007825032230
         H            5.237366514522     0.305884322432     9.056880100293     1.007825032230
         H            5.410366514522    -1.230115677568     9.264880100293     1.007825032230
         N            2.248366514522     1.383884322432    11.300880100293    14.003074004430
         C            1.615366514522     2.465884322432    12.035880100293    12.000000000000
         C            0.287366514522     2.926884322432    11.440880100293    12.000000000000
         O           -0.380633485478     3.778884322432    12.015880100293    15.994914619570
         C            2.608366514522     3.602884322432    12.211880100293    12.000000000000
         C            3.912366514522     3.104884322432    12.776880100293    12.000000000000
         O            3.922366514522     2.303884322432    13.706880100293    15.994914619570
         N            5.019366514522     3.515884322432    12.192880100293    14.003074004430
         H            2.600366514522     1.608884322432    10.549880100293     1.007825032230
         H            1.370366514522     2.123884322432    12.909880100293     1.007825032230
         H            2.766366514522     4.032884322432    11.356880100293     1.007825032230
         H            2.233366514522     4.274884322432    12.801880100293     1.007825032230
         H            5.781366514522     3.221884322432    12.460880100293     1.007825032230
         H            4.979366514522     4.077884322432    11.542880100293     1.007825032230
         N           -0.127633485478     2.329884322432    10.328880100293    14.003074004430
         C           -1.466633485478     2.584884322432     9.823880100293    12.000000000000
         C           -2.537633485478     1.994884322432    10.724880100293    12.000000000000
         O           -2.360633485478     0.914884322432    11.307880100293    15.994914619570
         C           -1.645633485478     1.996884322432     8.424880100293    12.000000000000
         C           -0.693633485478     2.538884322432     7.361880100293    12.000000000000
         C           -1.065633485478     1.914884322432     6.017880100293    12.000000000000
         C           -0.727633485478     4.049884322432     7.269880100293    12.000000000000
         H            0.342366514522     1.782884322432     9.859880100293     1.007825032230
         H           -1.567633485478     3.548884322432     9.798880100293     1.007825032230
         H           -1.533633485478     1.034884322432     8.477880100293     1.007825032230
         H           -2.556633485478     2.160884322432     8.135880100293     1.007825032230
         H            0.213366514522     2.299884322432     7.610880100293     1.007825032230
         H           -0.469633485478     2.248884322432     5.329880100293     1.007825032230
         H           -0.983633485478     0.949884322432     6.074880100293     1.007825032230
         H           -1.979633485478     2.148884322432     5.793880100293     1.007825032230
         H           -0.109633485478     4.346884322432     6.583880100293     1.007825032230
         H           -1.624633485478     4.339884322432     7.042880100293     1.007825032230
         H           -0.470633485478     4.431884322432     8.123880100293     1.007825032230
         N           -3.673633485478     2.681884322432    10.821880100293    14.003074004430
         C           -4.856633485478     2.070884322432    11.374880100293    12.000000000000
         C           -5.416633485478     1.116884322432    10.360880100293    12.000000000000
         O           -5.112633485478     1.220884322432     9.174880100293    15.994914619570
         C           -5.925633485478     3.111884322432    11.704880100293    12.000000000000
         O           -6.423633485478     3.609884322432    10.473880100293    15.994914619570
         C           -5.402633485478     4.234884322432    12.597880100293    12.000000000000
         H           -3.771633485478     3.498884322432    10.571880100293     1.007825032230
         H           -4.611633485478     1.614884322432    12.194880100293     1.007825032230
         H           -6.635633485478     2.694884322432    12.217880100293     1.007825032230
         H           -7.049633485478     4.149884322432    10.622880100293     1.007825032230
         H           -6.117633485478     4.865884322432    12.776880100293     1.007825032230
         H           -5.084633485478     3.861884322432    13.434880100293     1.007825032230
         H           -4.673633485478     4.691884322432    12.149880100293     1.007825032230
         N           -6.245633485478     0.184884322432    10.802880100293    14.003074004430
         C           -6.770633485478    -0.738115677568     9.805880100293    12.000000000000
         C           -7.745633485478    -0.034115677568     8.817880100293    12.000000000000
         O           -7.803633485478    -0.444115677568     7.646880100293    15.994914619570
         C           -7.346633485478    -1.999115677568    10.456880100293    12.000000000000
         C           -6.340633485478    -2.801115677568    11.303880100293    12.000000000000
         C           -5.014633485478    -3.107115677568    10.579880100293    12.000000000000
         O           -5.038633485478    -3.466115677568     9.396880100293    15.994914619570
         O           -3.921633485478    -2.964115677568    11.200880100293    15.994914619570
         H           -6.504633485478     0.069884322432    11.614880100293     1.007825032230
         H           -6.029633485478    -1.041115677568     9.257880100293     1.007825032230
         H           -8.094633485478    -1.745115677568    11.019880100293     1.007825032230
         H           -7.697633485478    -2.576115677568     9.760880100293     1.007825032230
         H           -6.148633485478    -2.306115677568    12.115880100293     1.007825032230
         H           -6.752633485478    -3.637115677568    11.571880100293     1.007825032230
         N           -8.462633485478     1.032884322432     9.216880100293    14.003074004430
         C           -9.278633485478     1.803884322432     8.250880100293    12.000000000000
         C           -8.390633485478     2.351884322432     7.152880100293    12.000000000000
         O           -8.734633485478     2.331884322432     5.970880100293    15.994914619570
         C          -10.029633485478     2.977884322432     8.937880100293    12.000000000000
         C          -10.727633485478     3.908884322432     7.953880100293    12.000000000000
         C          -11.397633485478     5.074884322432     8.617880100293    12.000000000000
         O          -10.780633485478     5.701884322432     9.500880100293    15.994914619570
         O          -12.546633485478     5.362884322432     8.229880100293    15.994914619570
         H           -8.491633485478     1.322884322432    10.025880100293     1.007825032230
         H           -9.939633485478     1.200884322432     7.876880100293     1.007825032230
         H          -10.686633485478     2.616884322432     9.552880100293     1.007825032230
         H           -9.398633485478     3.490884322432     9.466880100293     1.007825032230
         H          -10.078633485478     4.237884322432     7.312880100293     1.007825032230
         H          -11.388633485478     3.404884322432     7.453880100293     1.007825032230
         N           -7.258633485478     2.926884322432     7.567880100293    14.003074004430
         C           -6.339633485478     3.529884322432     6.612880100293    12.000000000000
         C           -5.762633485478     2.448884322432     5.681880100293    12.000000000000
         O           -5.745633485478     2.589884322432     4.454880100293    15.994914619570
         C           -5.201633485478     4.234884322432     7.342880100293    12.000000000000
         C           -5.632633485478     5.470884322432     8.111880100293    12.000000000000
         C           -4.619633485478     5.867884322432     9.174880100293    12.000000000000
         O           -3.565633485478     5.225884322432     9.326880100293    15.994914619570
         N           -4.886633485478     6.941884322432     9.899880100293    14.003074004430
         H           -7.010633485478     2.975884322432     8.389880100293     1.007825032230
         H           -6.827633485478     4.180884322432     6.085880100293     1.007825032230
         H           -4.788633485478     3.609884322432     7.958880100293     1.007825032230
         H           -4.522633485478     4.486884322432     6.697880100293     1.007825032230
         H           -5.755633485478     6.207884322432     7.493880100293     1.007825032230
         H           -6.491633485478     5.305884322432     8.530880100293     1.007825032230
         H           -5.621633485478     7.370884322432     9.777880100293     1.007825032230
         H           -4.324633485478     7.210884322432    10.492880100293     1.007825032230
         N           -5.306633485478     1.349884322432     6.264880100293    14.003074004430
         C           -4.722633485478     0.278884322432     5.471880100293    12.000000000000
         C           -5.725633485478    -0.302115677568     4.476880100293    12.000000000000
         O           -5.430633485478    -0.480115677568     3.291880100293    15.994914619570
         C           -4.207633485478    -0.796115677568     6.436880100293    12.000000000000
         C           -3.337633485478    -1.855115677568     5.743880100293    12.000000000000
         C           -3.048633485478    -3.038115677568     6.632880100293    12.000000000000
         N           -2.626633485478    -2.731115677568     8.004880100293    14.003074004430
         C           -1.470633485478    -2.158115677568     8.345880100293    12.000000000000
         N           -0.555633485478    -1.805115677568     7.450880100293    14.003074004430
         N           -1.227633485478    -1.923115677568     9.630880100293    14.003074004430
         H           -5.325633485478     1.204884322432     7.111880100293     1.007825032230
         H           -3.989633485478     0.628884322432     4.940880100293     1.007825032230
         H           -3.692633485478    -0.372115677568     7.140880100293     1.007825032230
         H           -4.963633485478    -1.232115677568     6.860880100293     1.007825032230
         H           -3.784633485478    -2.161115677568     4.938880100293     1.007825032230
         H           -2.500633485478    -1.451115677568     5.466880100293     1.007825032230
         H           -3.845633485478    -3.589115677568     6.674880100293     1.007825032230
         H           -2.356633485478    -3.572115677568     6.213880100293     1.007825032230
         H           -3.168633485478    -2.937115677568     8.640880100293     1.007825032230
         H           -0.696633485478    -1.944115677568     6.613880100293     1.007825032230
         H            0.178366514522    -1.438115677568     7.707880100293     1.007825032230
         H           -1.810633485478    -2.139115677568    10.224880100293     1.007825032230
         H           -0.487633485478    -1.554115677568     9.867880100293     1.007825032230
         N           -6.921633485478    -0.585115677568     4.966880100293    14.003074004430
         C           -7.945633485478    -1.179115677568     4.131880100293    12.000000000000
         C           -8.267633485478    -0.273115677568     2.949880100293    12.000000000000
         O           -8.523633485478    -0.753115677568     1.856880100293    15.994914619570
         C           -9.205633485478    -1.445115677568     4.943880100293    12.000000000000
         C           -9.022633485478    -2.570115677568     5.966880100293    12.000000000000
         O           -8.084633485478    -3.366115677568     5.877880100293    15.994914619570
         N           -9.914633485478    -2.621115677568     6.941880100293    14.003074004430
         H           -7.159633485478    -0.440115677568     5.780880100293     1.007825032230
         H           -7.607633485478    -2.023115677568     3.791880100293     1.007825032230
         H           -9.465633485478    -0.633115677568     5.404880100293     1.007825032230
         H           -9.930633485478    -1.675115677568     4.341880100293     1.007825032230
         H           -9.854633485478    -3.228115677568     7.548880100293     1.007825032230
         H          -10.554633485478    -2.047115677568     6.968880100293     1.007825032230
         N           -8.283633485478     1.038884322432     3.167880100293    14.003074004430
         C           -8.564633485478     1.974884322432     2.089880100293    12.000000000000
         C           -7.504633485478     1.933884322432     1.002880100293    12.000000000000
         O           -7.816633485478     1.944884322432    -0.185119899707    15.994914619570
         H           -8.134633485478     1.404884322432     3.931880100293     1.007825032230
         H           -9.430633485478     1.769884322432     1.702880100293     1.007825032230
         H           -8.620633485478     2.873884322432     2.450880100293     1.007825032230
         N           -6.220633485478     1.895884322432     1.404880100293    14.003074004430
         C           -5.170633485478     1.837884322432     0.425880100293    12.000000000000
         C           -5.197633485478     0.515884322432    -0.351119899707    12.000000000000
         O           -5.033633485478     0.499884322432    -1.585119899707    15.994914619570
         C           -3.798633485478     2.034884322432     1.085880100293    12.000000000000
         C           -3.562633485478     3.405884322432     1.679880100293    12.000000000000
         C           -3.690633485478     4.557884322432     0.934880100293    12.000000000000
         C           -3.118633485478     3.520884322432     2.976880100293    12.000000000000
         C           -3.420633485478     5.817884322432     1.492880100293    12.000000000000
         C           -2.843633485478     4.761884322432     3.533880100293    12.000000000000
         C           -2.994633485478     5.914884322432     2.785880100293    12.000000000000
         H           -5.960633485478     1.902884322432     2.224880100293     1.007825032230
         H           -5.321633485478     2.559884322432    -0.204119899707     1.007825032230
         H           -3.693633485478     1.371884322432     1.785880100293     1.007825032230
         H           -3.109633485478     1.860884322432     0.425880100293     1.007825032230
         H           -3.960633485478     4.499884322432     0.046880100293     1.007825032230
         H           -3.000633485478     2.753884322432     3.488880100293     1.007825032230
         H           -3.531633485478     6.586884322432     0.980880100293     1.007825032230
         H           -2.555633485478     4.817884322432     4.416880100293     1.007825032230
         H           -2.808633485478     6.745884322432     3.158880100293     1.007825032230
         N           -5.393633485478    -0.588115677568     0.351880100293    14.003074004430
         C           -5.499633485478    -1.896115677568    -0.303119899707    12.000000000000
         C           -6.660633485478    -1.917115677568    -1.276119899707    12.000000000000
         O           -6.534633485478    -2.448115677568    -2.386119899707    15.994914619570
         C           -5.554633485478    -3.033115677568     0.739880100293    12.000000000000
         C           -4.220633485478    -3.154115677568     1.508880100293    12.000000000000
[...]
         H            1.869366514522    10.700884322432     9.388880100293     1.007825032230
         N            2.693366514522     8.761884322432    11.735880100293    14.003074004430
         C            2.044366514522     8.122884322432    12.881880100293    12.000000000000
         C            2.982366514522     7.222884322432    13.684880100293    12.000000000000
         O            2.533366514522     6.469884322432    14.531880100293    15.994914619570
         C            0.795366514522     7.379884322432    12.428880100293    12.000000000000
         C           -0.290633485478     8.304884322432    11.878880100293    12.000000000000
         C           -1.534633485478     7.570884322432    11.410880100293    12.000000000000
         O           -2.640633485478     7.720884322432    11.876880100293    15.994914619570
         N           -1.331633485478     6.766884322432    10.388880100293    14.003074004430
         H            2.799366514522     8.233884322432    11.065880100293     1.007825032230
         H            1.783366514522     8.828884322432    13.493880100293     1.007825032230
         H            1.039366514522     6.735884322432    11.745880100293     1.007825032230
         H            0.435366514522     6.877884322432    13.176880100293     1.007825032230
         H           -0.539633485478     8.942884322432    12.565880100293     1.007825032230
         H            0.073366514522     8.813884322432    11.137880100293     1.007825032230
         H           -0.539633485478     6.670884322432    10.067880100293     1.007825032230
         H           -1.991633485478     6.337884322432    10.041880100293     1.007825032230
         N            4.287366514522     7.316884322432    13.429880100293    14.003074004430
         C            5.266366514522     6.477884322432    14.131880100293    12.000000000000
         C            5.293366514522     6.729884322432    15.642880100293    12.000000000000
         O            5.204366514522     7.879884322432    16.080880100293    15.994914619570
         C            6.632366514522     6.713884322432    13.546880100293    12.000000000000
         H            4.628366514522     7.858884322432    12.855880100293     1.007825032230
         H            4.998366514522     5.553884322432    14.008880100293     1.007825032230
         H            7.282366514522     6.160884322432    14.008880100293     1.007825032230
         H            6.625366514522     6.484884322432    12.603880100293     1.007825032230
         H            6.872366514522     7.647884322432    13.649880100293     1.007825032230
         N            5.473366514522     5.675884322432    16.447880100293    14.003074004430
         C            5.665366514522     5.922884322432    17.868880100293    12.000000000000
         C            6.893366514522     6.796884322432    18.073880100293    12.000000000000
         O            7.914366514522     6.628884322432    17.386880100293    15.994914619570
         C            5.987366514522     4.541884322432    18.445880100293    12.000000000000
         C            5.545366514522     3.597884322432    17.440880100293    12.000000000000
         C            5.646366514522     4.261884322432    16.126880100293    12.000000000000
         H            4.896366514522     6.354884322432    18.272880100293     1.007825032230
         H            6.936366514522     4.447884322432    18.620880100293     1.007825032230
         H            5.527366514522     4.397884322432    19.287880100293     1.007825032230
         H            6.093366514522     2.797884322432    17.460880100293     1.007825032230
         H            4.632366514522     3.320884322432    17.612880100293     1.007825032230
         H            6.503366514522     4.092884322432    15.705880100293     1.007825032230
         H            4.963366514522     3.947884322432    15.513880100293     1.007825032230
         N            6.799366514522     7.714884322432    19.037880100293    14.003074004430
         C            7.927366514522     8.569884322432    19.421880100293    12.000000000000
         C            8.059366514522     8.442884322432    20.919880100293    12.000000000000
         O            7.052366514522     8.122884322432    21.547880100293    15.994914619570
         C            7.667366514522    10.046884322432    19.071880100293    12.000000000000
         C            7.762366514522    10.470884322432    17.619880100293    12.000000000000
         C            7.519366514522    11.984884322432    17.564880100293    12.000000000000
         C            7.998366514522    12.671884322432    16.296880100293    12.000000000000
         N            7.766366514522    14.147884322432    16.404880100293    14.003074004430
         O            9.113366514522     8.711884322432    21.513880100293    15.994914619570
         H            6.080366514522     7.859884322432    19.487880100293     1.007825032230
         H            8.728366514522     8.294884322432    18.947880100293     1.007825032230
         H            6.779366514522    10.273884322432    19.387880100293     1.007825032230
         H            8.295366514522    10.585884322432    19.578880100293     1.007825032230
         H            8.634366514522    10.251884322432    17.256880100293     1.007825032230
         H            7.105366514522     9.999884322432    17.082880100293     1.007825032230
         H            6.568366514522    12.148884322432    17.664880100293     1.007825032230
         H            7.960366514522    12.396884322432    18.324880100293     1.007825032230
         H            8.941366514522    12.492884322432    16.157880100293     1.007825032230
         H            7.526366514522    12.316884322432    15.527880100293     1.007825032230
         H            8.047366514522    14.547884322432    15.660880100293     1.007825032230
         H            6.897366514522    14.304884322432    16.514880100293     1.007825032230
         H            8.216366514522    14.468884322432    17.102880100293     1.007825032230
         ZN           9.094366514522     8.806884322432    23.544880100293    63.929142010000
         ZN           0.682366514522    -1.578115677568    13.722880100293    63.929142010000
         S            6.825366514522     4.979884322432    25.271880100293    31.972071174400
         C            7.701366514522     6.455884322432    24.826880100293    12.000000000000
         N            8.264366514522     7.404884322432    24.540880100293    14.003074004430
         O           -6.560633485478     4.862884322432     3.174880100293    15.994914619570
         O           -1.259633485478    12.674884322432    -2.799119899707    15.994914619570
         O            1.554366514522     9.728884322432    -4.058119899707    15.994914619570
         O            3.981366514522     1.745884322432   -13.439119899707    15.994914619570
         O           -8.451633485478     5.369884322432    10.802880100293    15.994914619570
         O            1.314366514522     3.761884322432   -10.231119899707    15.994914619570
         O            5.736366514522    -2.334115677568     5.454880100293    15.994914619570
         O            5.815366514522     4.498884322432    -4.858119899707    15.994914619570
         O            2.542366514522    10.738884322432    -1.606119899707    15.994914619570
         O           -6.343633485478     2.981884322432   -15.076119899707    15.994914619570
         O          -11.202633485478     1.578884322432     5.016880100293    15.994914619570
         O            6.158366514522     8.661884322432     0.345880100293    15.994914619570
         O            4.043366514522     0.108884322432    -7.030119899707    15.994914619570
         O            2.040366514522     1.808884322432    15.540880100293    15.994914619570
         O           -9.262633485478    -3.542115677568     1.845880100293    15.994914619570
         O           -4.895633485478    -6.051115677568     5.911880100293    15.994914619570
         O            1.554366514522    -0.172115677568   -11.175119899707    15.994914619570
         O            7.829366514522    -0.354115677568     4.941880100293    15.994914619570
         O            1.237366514522     1.668884322432   -13.569119899707    15.994914619570
         O            9.398366514522     1.385884322432    -0.159119899707    15.994914619570
         O           -1.082633485478    -0.459115677568    13.217880100293    15.994914619570
         O           -6.586633485478    -4.817115677568     7.761880100293    15.994914619570
         O            3.553366514522    10.265884322432    -5.910119899707    15.994914619570
         O            7.059366514522     3.984884322432     5.218880100293    15.994914619570
         O            7.357366514522    -1.561115677568    -2.017119899707    15.994914619570
         O           -6.212633485478    -4.317115677568     4.166880100293    15.994914619570
         O            6.826366514522     4.926884322432    -2.220119899707    15.994914619570
         O          -11.708633485478    -2.343115677568   -11.047119899707    15.994914619570
         O            7.631366514522     7.312884322432    -1.411119899707    15.994914619570
         O            8.951366514522     3.242884322432    -2.022119899707    15.994914619570
         O           -5.283633485478    -1.866115677568   -13.756119899707    15.994914619570
         O            7.919366514522     2.849884322432    -7.964119899707    15.994914619570
         O           -2.732633485478     4.428884322432   -13.573119899707    15.994914619570
         O          -10.348633485478     2.945884322432    -0.910119899707    15.994914619570
         O            8.371366514522     1.942884322432     6.333880100293    15.994914619570
         O           -0.976633485478     5.922884322432   -12.237119899707    15.994914619570
         O            7.274366514522    -5.150115677568    -0.292119899707    15.994914619570
         O          -11.986633485478    -0.474115677568     6.989880100293    15.994914619570
         O            8.334366514522     1.551884322432   -10.353119899707    15.994914619570
         O            4.428366514522   -10.680115677568    -8.740119899707    15.994914619570
         O            7.582366514522    -5.175115677568   -11.896119899707    15.994914619570
         O            7.619366514522    -0.339115677568    -4.504119899707    15.994914619570
         O            6.649366514522    -6.837115677568     3.995880100293    15.994914619570
         O           -7.497633485478    -5.968115677568    -9.392119899707    15.994914619570
         O            8.585366514522     8.192884322432    11.157880100293    15.994914619570
         O            9.027366514522     1.675884322432    -4.210119899707    15.994914619570
         O            8.954366514522    -1.851115677568    -6.572119899707    15.994914619570
         O          -11.901633485478     0.354884322432     2.598880100293    15.994914619570
         O           -2.007633485478     1.797884322432   -16.826119899707    15.994914619570
         O           -9.671633485478    -4.652115677568    -0.679119899707    15.994914619570
         O            6.368366514522    -0.945115677568    -6.258119899707    15.994914619570
         O           -9.049633485478     6.078884322432     2.632880100293    15.994914619570
         O           -8.798633485478    -4.129115677568   -11.368119899707    15.994914619570
         O            4.782366514522    -6.616115677568   -16.400119899707    15.994914619570
         O            8.723366514522    -1.163115677568     9.132880100293    15.994914619570
         O           -7.999633485478    -6.933115677568   -16.409119899707    15.994914619570
         O            7.105366514522    -7.311115677568   -13.094119899707    15.994914619570
         O           -4.837633485478     1.458884322432   -16.494119899707    15.994914619570
         O           -2.833633485478    -3.235115677568   -13.707119899707    15.994914619570
         O            6.756366514522    -8.487115677568    -3.109119899707    15.994914619570
         O            9.192366514522     6.205884322432     4.124880100293    15.994914619570
         O          -12.411633485478    -3.848115677568    -7.103119899707    15.994914619570
         O           10.154366514522     7.199884322432    -0.448119899707    15.994914619570
         O            0.740366514522    -0.250115677568    15.630880100293    15.994914619570
         O           -2.168633485478    -4.947115677568    11.169880100293    15.994914619570
         O            1.635366514522    -8.847115677568   -14.244119899707    15.994914619570
         O            7.075366514522    -3.127115677568     7.749880100293    15.994914619570
         O            3.259366514522    -4.542115677568   -16.068119899707    15.994914619570
         O          -12.254633485478     2.042884322432     0.535880100293    15.994914619570
         O          -13.435633485478    -9.488115677568    -5.118119899707    15.994914619570
         O           -0.465633485478    11.231884322432    -5.039119899707    15.994914619570
         O            1.591366514522     3.109884322432    17.861880100293    15.994914619570
         O           -4.043633485478    -5.885115677568    10.385880100293    15.994914619570
         O            9.129366514522     5.568884322432    10.403880100293    15.994914619570
         O           -4.137633485478    -1.576115677568    13.670880100293    15.994914619570
         O          -14.091633485478    -4.461115677568    -4.801119899707    15.994914619570
         O            0.065366514522    -5.511115677568     9.404880100293    15.994914619570
         O           11.132366514522    -2.222115677568    -4.661119899707    15.994914619570
         O            2.308366514522     5.728884322432    17.130880100293    15.994914619570
         O            9.742366514522    -1.841115677568    -9.097119899707    15.994914619570
         O          -12.293633485478     4.160884322432    11.747880100293    15.994914619570
         O            6.699366514522    11.191884322432    12.717880100293    15.994914619570
         O           -4.005633485478     7.859884322432    -9.311119899707    15.994914619570
         O           -3.571633485478     7.330884322432    -7.311119899707    15.994914619570
         O            7.126366514522    -9.095115677568     2.524880100293    15.994914619570
         O            4.938366514522    10.302884322432    14.946880100293    15.994914619570
         O          -14.011633485478     4.006884322432     9.700880100293    15.994914619570
         O            1.585366514522     4.303884322432    15.911880100293    15.994914619570
         O           10.166366514522    -1.567115677568     5.156880100293    15.994914619570
         O            7.418366514522    10.167884322432     4.976880100293    15.994914619570
         O            5.239366514522    11.951884322432     6.138880100293    15.994914619570
         O           -4.511633485478   -12.147115677568   -20.008119899707    15.994914619570
         O            9.809366514522    -3.547115677568     3.065880100293    15.994914619570
         O          -11.184633485478     4.584884322432     1.659880100293    15.994914619570
         O           -6.589633485478   -13.625115677568   -19.899119899707    15.994914619570
         O           -9.798633485478     7.922884322432     4.923880100293    15.994914619570
         O           10.077366514522    -2.349115677568    -2.497119899707    15.994914619570
         O           -7.102633485478    -4.010115677568   -13.483119899707    15.994914619570
         O          -11.559633485478     6.135884322432    12.084880100293    15.994914619570
         O            7.925366514522     9.604884322432     2.164880100293    15.994914619570
         O           -7.691633485478   -14.531115677568   -18.300119899707    15.994914619570
         O            6.700366514522   -11.946115677568    -9.004119899707    15.994914619570
         O          -11.925633485478    -2.382115677568     2.340880100293    15.994914619570
         O            6.101366514522     1.790884322432    -6.060119899707    15.994914619570
         O            0.220366514522     0.270884322432   -15.789119899707    15.994914619570
         O            8.996366514522    -3.567115677568    -1.158119899707    15.994914619570
         O            7.465366514522    -8.059115677568    -0.446119899707    15.994914619570
         O           -0.568633485478    -2.568115677568   -14.724119899707    15.994914619570
         O           10.050366514522     5.490884322432     7.672880100293    15.994914619570
         O           11.552366514522    -5.355115677568     2.997880100293    15.994914619570
         O           -3.136633485478    -5.801115677568   -14.334119899707    15.994914619570
         O            7.233366514522     5.536884322432    -7.239119899707    15.994914619570
         O            5.894366514522     2.161884322432   -10.083119899707    15.994914619570
         O            7.504366514522     8.106884322432     3.399880100293    15.994914619570
         O            0.989366514522   -14.559115677568   -15.314119899707    15.994914619570
         O            2.310366514522   -12.241115677568   -15.745119899707    15.994914619570
         O           -8.360633485478   -10.871115677568   -22.014119899707    15.994914619570
         O            9.795366514522    -7.429115677568   -13.583119899707    15.994914619570
         O           10.858366514522    -8.457115677568   -12.016119899707    15.994914619570
         O           -3.895633485478    -7.100115677568   -11.219119899707    15.994914619570
         O           -5.028633485478    -6.070115677568   -13.294119899707    15.994914619570
         O            5.658366514522    -4.600115677568     9.740880100293    15.994914619570
         O            7.409366514522    -6.149115677568     6.707880100293    15.994914619570
         O            7.408366514522    -4.328115677568     4.466880100293    15.994914619570
         O           -8.544633485478     5.803884322432    -3.770119899707    15.994914619570
         O          -11.040633485478    -5.111115677568    -8.919119899707    15.994914619570
         O           -4.454633485478     8.955884322432   -11.662119899707    15.994914619570
         O            5.199366514522    11.661884322432    -2.158119899707    15.994914619570
         O           11.173366514522     3.172884322432     2.474880100293    15.994914619570
         O            0.410366514522    -2.754115677568    12.147880100293    15.994914619570
         O            1.352366514522    -4.091115677568    11.002880100293    15.994914619570
         O           -1.251633485478    -3.276115677568    13.107880100293    15.994914619570
         O           11.117366514522    10.187884322432    17.259880100293    15.994914619570
         O           11.027366514522    10.553884322432    19.958880100293    15.994914619570

  Running in c1 symmetry.

  Rotational constants: A =      0.00003  B =      0.00001  C =      0.00001 [cm^-1]
  Rotational constants: A =      1.00613  B =      0.43445  C =      0.40925 [MHz]
  Nuclear repulsion = 467177.040439708565827

  Charge       = 0
  Multiplicity = 2
  Electrons    = 4701
  Nalpha       = 2351
  Nbeta        = 2350

  ==> Algorithm <==

  SCF Algorithm Type is DF.
  DIIS enabled.
  MOM disabled.
  Fractional occupation disabled.
  Guess Type is SAD.
  Energy threshold   = 1.00e-06
  Density threshold  = 1.00e-06
  Integral threshold = 0.00e+00

  ==> Primary Basis <==

  Basis Set: CC-PVDZ
    Blend: CC-PVDZ
    Number of shells: 5045
    Number of basis function: 10865
    Number of Cartesian functions: 11482
    Spherical Harmonics?: true
    Max angular momentum: 3

