
Host: Hunters-MacBook-Pro-2.local

Timers On : Mon May  3 14:58:15 2021
Timers Off: Mon May  3 14:58:17 2021

Wall Time:        2.56 seconds

                                                       Time (seconds)
Module                                       User      System        Wall        Calls

--------------------------------------------------------------------------------------

**************************************************************************************
